# vtk DataFile Version 3.0
VEM 3D Result
ASCII
DATASET UNSTRUCTURED_GRID

POINTS 1915 double
146.9808358611 200.2000000000 50.0500000000
-0.2000000000 39.6704483378 30.4620058709
-0.2000000000 -0.2000000000 -0.0500000000
45.2088815789 30.8244243421 -0.0500000000
-0.2000000000 80.1388719490 -0.0500000000
-0.2000000000 84.2518367673 -0.0500000000
-0.2000000000 200.2000000000 50.0500000000
5.9043769716 200.2000000000 50.0500000000
45.2088815789 200.2000000000 47.9017398232
22.1116682975 200.2000000000 25.3458674780
10.2935702987 -0.2000000000 -0.0500000000
125.4546624714 -0.2000000000 -0.0500000000
-0.2000000000 64.3745725373 42.3446179416
-0.2000000000 4.3337616399 36.7235451238
104.5695423475 -0.2000000000 -0.0500000000
-0.2000000000 94.7628744234 -0.0500000000
-0.2000000000 85.4966860320 2.9894320418
-0.2000000000 174.8444911257 20.2188253959
-0.2000000000 51.7287418434 27.5484768493
-0.2000000000 58.1396798584 27.3230923097
-0.2000000000 52.6555813331 27.5158926484
-0.2000000000 169.9384609471 19.0014436514
-0.2000000000 130.7822898214 6.7308648148
-0.2000000000 72.1661489969 8.7773034868
-0.2000000000 47.0078563306 22.5083702537
-0.2000000000 8.5415372671 20.7421672813
-0.2000000000 22.6193965517 22.9418327945
-0.2000000000 -0.2000000000 21.3731469547
-0.2000000000 -0.2000000000 20.4941872649
-0.2000000000 -0.2000000000 25.1892549070
200.2000000000 -0.2000000000 50.0500000000
-0.2000000000 108.7298165470 50.0500000000
200.2000000000 -0.2000000000 8.6003786353
200.2000000000 64.1237423794 50.0500000000
113.3061861845 -0.2000000000 10.9909595022
121.6509127997 -0.2000000000 0.8260861695
105.3704820915 50.4349200643 50.0500000000
200.2000000000 83.7833316757 50.0500000000
10.5011665470 -0.2000000000 50.0500000000
88.5529253936 -0.2000000000 50.0500000000
96.2618853751 -0.2000000000 50.0500000000
50.2284740691 -0.2000000000 50.0500000000
84.9930329320 43.4197326487 50.0500000000
74.9279781539 52.8444104977 50.0500000000
119.5652277863 -0.2000000000 50.0500000000
91.7854530439 -0.2000000000 50.0500000000
-0.2000000000 -0.2000000000 14.6889261473
-0.2000000000 -0.2000000000 18.3975884787
-0.2000000000 -0.2000000000 21.8307667196
-0.2000000000 -0.2000000000 22.7207085887
-0.2000000000 -0.2000000000 22.3500060250
162.7817426108 155.7207358374 50.0500000000
-0.2000000000 88.8327597882 -0.0500000000
-0.2000000000 199.0096109812 -0.0500000000
-0.2000000000 140.3207270726 -0.0500000000
-0.2000000000 169.4684300054 -0.0500000000
-0.2000000000 153.1432812384 -0.0500000000
-0.2000000000 133.4856449391 3.7814806677
-0.2000000000 91.3211194564 -0.0500000000
-0.2000000000 93.5254448253 -0.0500000000
-0.2000000000 85.8696548351 -0.0500000000
200.2000000000 200.2000000000 -0.0500000000
200.2000000000 69.3261521479 50.0500000000
108.8667139959 62.0755578093 50.0500000000
46.9100287183 115.8846546252 21.4650592550
186.6679648930 200.2000000000 -0.0500000000
-0.2000000000 200.2000000000 25.8713845689
-0.2000000000 200.2000000000 -0.0500000000
-0.2000000000 200.2000000000 2.6052503015
-0.2000000000 200.2000000000 3.6447684897
-0.2000000000 154.3460359922 20.0729256597
-0.2000000000 126.6670863066 23.6868378538
-0.2000000000 155.3567766075 21.6601042822
-0.2000000000 89.1940666562 -0.0500000000
-0.2000000000 146.5062510976 19.1542769802
-0.2000000000 -0.2000000000 10.7933029993
-0.2000000000 86.3587390683 -0.0500000000
-0.2000000000 81.7757577545 -0.0500000000
-0.2000000000 83.7833316757 -0.0500000000
-0.2000000000 44.0105171338 11.1095946241
-0.2000000000 84.9714998114 -0.0500000000
-0.2000000000 70.5071487067 8.1558223998
200.2000000000 48.4589123007 38.1553868878
192.9057769929 86.3587390683 50.0500000000
200.2000000000 81.7757577545 50.0500000000
65.5886814136 35.7644353780 50.0500000000
90.1852917128 87.8876597111 50.0500000000
66.6515334572 32.3548791822 50.0500000000
51.0000000000 30.3984375000 50.0500000000
66.3534694084 32.1043785454 50.0500000000
19.5492699033 38.3983444940 50.0500000000
-0.2000000000 142.0842075987 50.0500000000
-0.2000000000 76.2078345725 50.0500000000
200.2000000000 -0.2000000000 34.7498470863
200.2000000000 36.3850582374 36.2847889770
200.2000000000 33.5327380952 36.5076264881
200.2000000000 -0.2000000000 35.5132517669
200.2000000000 -0.2000000000 34.7311900867
200.2000000000 27.0236037234 22.9045527032
200.0000000000 -0.0000000000 50.0000000000
165.2534654445 178.3141074255 50.0500000000
113.0585786212 149.2367512264 29.9423530592
-0.2000000000 78.8067917027 31.3266798620
-0.2000000000 101.5042008006 32.2559448310
-0.2000000000 74.7902279006 30.3214752029
-0.2000000000 69.4143418468 27.0408218474
-0.2000000000 78.3891879422 26.6253197133
-0.2000000000 87.5322240710 15.9185883770
-0.2000000000 86.4453706205 28.8083882448
-0.2000000000 86.4476116813 28.8133011762
-0.2000000000 121.0548415148 28.1632432439
-0.2000000000 124.4190793163 24.0497785374
-0.2000000000 109.8714397415 30.0207717043
-0.2000000000 105.7095274751 30.7528690860
-0.2000000000 96.8908883716 27.8276653372
-0.2000000000 120.1140309496 17.3658787387
-0.2000000000 126.5726197589 23.0053994763
-0.2000000000 131.3074570220 17.5350858697
76.0744047619 33.5327380952 50.0500000000
117.3354939089 -0.2000000000 50.0500000000
98.8929658995 36.3850582374 50.0500000000
116.5210714286 -0.2000000000 50.0500000000
93.3461895911 -0.2000000000 50.0500000000
102.7780006986 51.6595540289 50.0500000000
119.6732738095 42.4144254658 50.0500000000
-0.2000000000 -0.2000000000 50.0500000000
200.2000000000 63.4165737451 50.0500000000
200.2000000000 65.8215884368 50.0500000000
120.1096746750 49.4158132646 50.0500000000
200.2000000000 68.5624215889 50.0500000000
118.5278019842 50.1837126290 50.0500000000
116.2560286060 51.8288759875 50.0500000000
-0.2000000000 80.9147178919 50.0500000000
-0.2000000000 79.2658242032 50.0500000000
-0.2000000000 76.3660069680 50.0500000000
-0.2000000000 77.3234447005 50.0500000000
-0.2000000000 72.5792276051 50.0500000000
-0.2000000000 78.6408049424 50.0500000000
-0.2000000000 77.7749158326 50.0500000000
-0.2000000000 78.5755343951 50.0500000000
-0.2000000000 68.7654069767 50.0500000000
-0.2000000000 72.8944306931 50.0500000000
-0.2000000000 51.8288759875 39.4771478713
-0.2000000000 50.1837126290 39.6674049910
-0.2000000000 42.4144254658 39.3327902594
-0.2000000000 49.4158132646 40.1391831631
-0.2000000000 -0.2000000000 42.4926639253
17.6453170061 36.3415194665 50.0500000000
-0.2000000000 50.3308525311 50.0500000000
19.8652663934 34.6063866120 50.0500000000
35.3208841463 28.7185322300 50.0500000000
-0.2000000000 57.4468750000 50.0500000000
24.0013297872 27.0236037234 50.0500000000
35.1273148148 28.4143518519 50.0500000000
24.0013297872 10.9306610942 50.0500000000
24.5007636656 55.0566117363 50.0500000000
39.5883575494 35.4245618634 50.0500000000
38.4149777114 84.9405487211 50.0500000000
55.3262218147 60.1554914230 50.0500000000
-0.2000000000 149.3072146302 50.0500000000
-0.2000000000 108.1751350702 50.0500000000
12.0003500646 104.4249649935 50.0500000000
33.3659351145 25.6464694656 50.0500000000
4.2945487484 -0.2000000000 0.6097983057
14.3260608049 154.8045166229 18.4055203549
52.6709755596 134.9523617214 22.6466039994
40.0245673848 133.2733354343 22.7247794844
42.4571435908 133.4417445563 22.4440976145
-0.2000000000 143.3916220193 21.0840222099
-0.2000000000 107.2117658066 31.4522662224
-0.2000000000 138.5833613235 13.6191140029
-0.2000000000 128.5303179364 27.6203499298
-0.2000000000 124.5751927639 15.2642765792
-0.2000000000 149.8141257225 38.2901559113
-0.2000000000 163.3552829818 34.6398340778
-0.2000000000 178.3141074255 33.7854550663
-0.2000000000 112.7597569538 50.0500000000
-0.2000000000 174.4308357975 50.0500000000
-0.2000000000 144.1147367119 50.0500000000
-0.2000000000 112.5025182794 50.0500000000
-0.2000000000 152.2062657431 50.0500000000
-0.2000000000 157.2800125297 50.0500000000
-0.2000000000 108.6345313143 50.0500000000
-0.2000000000 106.4280105552 50.0500000000
-0.2000000000 106.8662614735 50.0500000000
193.7076219512 155.3567766075 50.0500000000
181.4776605058 154.3460359922 50.0500000000
200.2000000000 174.8444911257 50.0500000000
200.2000000000 169.9384609471 50.0500000000
156.4428891821 137.2634861478 50.0500000000
200.2000000000 124.5524372766 50.0500000000
86.1052194286 200.2000000000 50.0500000000
101.9263867530 95.3946366569 50.0500000000
180.1042739628 91.3211194564 50.0500000000
84.6340953593 200.2000000000 -0.0500000000
62.0493815592 46.5004216642 -0.0500000000
-0.2000000000 104.0340682657 -0.0500000000
-0.2000000000 95.6420630285 -0.0500000000
-0.2000000000 122.9032914447 5.4263774603
22.8938951345 124.5945090767 -0.0500000000
29.7573355960 147.0566778596 -0.0500000000
-0.2000000000 159.9091316107 -0.0500000000
-0.2000000000 136.6505220334 -0.0500000000
-0.2000000000 76.0065132498 -0.0500000000
-0.2000000000 75.1297748717 -0.0500000000
-0.2000000000 66.8560986126 -0.0500000000
-0.2000000000 75.5013071263 -0.0500000000
-0.2000000000 71.3700167377 -0.0500000000
25.7466961853 122.3964492507 2.8674183360
22.8938951345 124.5945090767 4.9139413746
24.0994590546 122.9032914447 5.4263774603
39.2369636964 89.0961977448 16.0699354115
200.2000000000 42.4144254658 39.3327902594
200.2000000000 50.1837126290 39.6674049910
200.2000000000 49.4158132646 40.1391831631
200.2000000000 -0.2000000000 27.8632595530
200.0000000000 -0.0000000000 34.8289579504
170.3909592517 126.5726197589 23.0053994763
200.2000000000 200.2000000000 50.0500000000
136.0462148552 200.2000000000 50.0500000000
131.3175062254 200.2000000000 50.0500000000
200.2000000000 200.2000000000 42.3446179416
120.1096746750 200.2000000000 40.1391831631
69.4225227790 200.2000000000 38.1553868878
62.0493815592 200.2000000000 40.9455160115
57.7993697479 200.2000000000 35.6330012474
200.2000000000 117.1830621302 38.8430582338
200.2000000000 134.5455482613 50.0500000000
200.2000000000 84.5143474229 50.0500000000
200.2000000000 75.7924140899 50.0500000000
200.2000000000 145.6031082101 50.0500000000
200.2000000000 180.6708973761 50.0500000000
[...]
POINT_DATA 1915
VECTORS displacement double
0.0000000000e+00 0.0000000000e+00 0.0000000000e+00
0.0000000000e+00 0.0000000000e+00 0.0000000000e+00
0.0000000000e+00 0.0000000000e+00 0.0000000000e+00
0.0000000000e+00 0.0000000000e+00 0.0000000000e+00
0.0000000000e+00 0.0000000000e+00 0.0000000000e+00
0.0000000000e+00 0.0000000000e+00 0.0000000000e+00
0.0000000000e+00 0.0000000000e+00 0.0000000000e+00
0.0000000000e+00 0.0000000000e+00 0.0000000000e+00
0.0000000000e+00 0.0000000000e+00 0.0000000000e+00
0.0000000000e+00 0.0000000000e+00 0.0000000000e+00
0.0000000000e+00 0.0000000000e+00 0.0000000000e+00
0.0000000000e+00 0.0000000000e+00 0.0000000000e+00
0.0000000000e+00 0.0000000000e+00 0.0000000000e+00
0.0000000000e+00 0.0000000000e+00 0.0000000000e+00
0.0000000000e+00 0.0000000000e+00 0.0000000000e+00
0.0000000000e+00 0.0000000000e+00 0.0000000000e+00
0.0000000000e+00 0.0000000000e+00 0.0000000000e+00
0.0000000000e+00 0.0000000000e+00 0.0000000000e+00
0.0000000000e+00 0.0000000000e+00 0.0000000000e+00
0.0000000000e+00 0.0000000000e+00 0.0000000000e+00
0.0000000000e+00 0.0000000000e+00 0.0000000000e+00
0.0000000000e+00 0.0000000000e+00 0.0000000000e+00
0.0000000000e+00 0.0000000000e+00 0.0000000000e+00
0.0000000000e+00 0.0000000000e+00 0.0000000000e+00
0.0000000000e+00 0.0000000000e+00 0.0000000000e+00
0.0000000000e+00 0.0000000000e+00 0.0000000000e+00
0.0000000000e+00 0.0000000000e+00 0.0000000000e+00
0.0000000000e+00 0.0000000000e+00 0.0000000000e+00
0.0000000000e+00 0.0000000000e+00 0.0000000000e+00
0.0000000000e+00 0.0000000000e+00 0.0000000000e+00
0.0000000000e+00 0.0000000000e+00 0.0000000000e+00
0.0000000000e+00 0.0000000000e+00 0.0000000000e+00
0.0000000000e+00 0.0000000000e+00 0.0000000000e+00
0.0000000000e+00 0.0000000000e+00 0.0000000000e+00
0.0000000000e+00 0.0000000000e+00 0.0000000000e+00
0.0000000000e+00 0.0000000000e+00 0.0000000000e+00
0.0000000000e+00 0.0000000000e+00 0.0000000000e+00
0.0000000000e+00 0.0000000000e+00 0.0000000000e+00
0.0000000000e+00 0.0000000000e+00 0.0000000000e+00
0.0000000000e+00 0.0000000000e+00 0.0000000000e+00
0.0000000000e+00 0.0000000000e+00 0.0000000000e+00
0.0000000000e+00 0.0000000000e+00 0.0000000000e+00
0.0000000000e+00 0.0000000000e+00 0.0000000000e+00
0.0000000000e+00 0.0000000000e+00 0.0000000000e+00
0.0000000000e+00 0.0000000000e+00 0.0000000000e+00
0.0000000000e+00 0.0000000000e+00 0.0000000000e+00
0.0000000000e+00 0.0000000000e+00 0.0000000000e+00
0.0000000000e+00 0.0000000000e+00 0.0000000000e+00
0.0000000000e+00 0.0000000000e+00 0.0000000000e+00
0.0000000000e+00 0.0000000000e+00 0.0000000000e+00
0.0000000000e+00 0.0000000000e+00 0.0000000000e+00
0.0000000000e+00 0.0000000000e+00 0.0000000000e+00
0.0000000000e+00 0.0000000000e+00 0.0000000000e+00
0.0000000000e+00 0.0000000000e+00 0.0000000000e+00
0.0000000000e+00 0.0000000000e+00 0.0000000000e+00
0.0000000000e+00 0.0000000000e+00 0.0000000000e+00
0.0000000000e+00 0.0000000000e+00 0.0000000000e+00
0.0000000000e+00 0.0000000000e+00 0.0000000000e+00
0.0000000000e+00 0.0000000000e+00 0.0000000000e+00
0.0000000000e+00 0.0000000000e+00 0.0000000000e+00
0.0000000000e+00 0.0000000000e+00 0.0000000000e+00
0.0000000000e+00 0.0000000000e+00 0.0000000000e+00
0.0000000000e+00 0.0000000000e+00 0.0000000000e+00
0.0000000000e+00 0.0000000000e+00 0.0000000000e+00
-8.9855214359e-07 3.4132205139e-07 6.3570180757e-08
0.0000000000e+00 0.0000000000e+00 0.0000000000e+00
0.0000000000e+00 0.0000000000e+00 0.0000000000e+00
0.0000000000e+00 0.0000000000e+00 0.0000000000e+00
0.0000000000e+00 0.0000000000e+00 0.0000000000e+00
0.0000000000e+00 0.0000000000e+00 0.0000000000e+00
0.0000000000e+00 0.0000000000e+00 0.0000000000e+00
0.0000000000e+00 0.0000000000e+00 0.0000000000e+00
0.0000000000e+00 0.0000000000e+00 0.0000000000e+00
0.0000000000e+00 0.0000000000e+00 0.0000000000e+00
0.0000000000e+00 0.0000000000e+00 0.0000000000e+00
0.0000000000e+00 0.0000000000e+00 0.0000000000e+00
0.0000000000e+00 0.0000000000e+00 0.0000000000e+00
0.0000000000e+00 0.0000000000e+00 0.0000000000e+00
0.0000000000e+00 0.0000000000e+00 0.0000000000e+00
0.0000000000e+00 0.0000000000e+00 0.0000000000e+00
0.0000000000e+00 0.0000000000e+00 0.0000000000e+00
0.0000000000e+00 0.0000000000e+00 0.0000000000e+00
0.0000000000e+00 0.0000000000e+00 0.0000000000e+00
0.0000000000e+00 0.0000000000e+00 0.0000000000e+00
0.0000000000e+00 0.0000000000e+00 0.0000000000e+00
0.0000000000e+00 0.0000000000e+00 0.0000000000e+00
0.0000000000e+00 0.0000000000e+00 0.0000000000e+00
0.0000000000e+00 0.0000000000e+00 0.0000000000e+00
0.0000000000e+00 0.0000000000e+00 0.0000000000e+00
0.0000000000e+00 0.0000000000e+00 0.0000000000e+00
0.0000000000e+00 0.0000000000e+00 0.0000000000e+00
0.0000000000e+00 0.0000000000e+00 0.0000000000e+00
0.0000000000e+00 0.0000000000e+00 0.0000000000e+00
0.0000000000e+00 0.0000000000e+00 0.0000000000e+00
0.0000000000e+00 0.0000000000e+00 0.0000000000e+00
0.0000000000e+00 0.0000000000e+00 0.0000000000e+00
0.0000000000e+00 0.0000000000e+00 0.0000000000e+00
0.0000000000e+00 0.0000000000e+00 0.0000000000e+00
0.0000000000e+00 0.0000000000e+00 0.0000000000e+00
2.5382084402e-06 -1.9360853280e-06 -1.1110795649e-05
0.0000000000e+00 0.0000000000e+00 0.0000000000e+00
-3.4007701663e-07 1.1620538432e-06 -2.2614521977e-06
0.0000000000e+00 0.0000000000e+00 0.0000000000e+00
0.0000000000e+00 0.0000000000e+00 0.0000000000e+00
0.0000000000e+00 0.0000000000e+00 0.0000000000e+00
0.0000000000e+00 0.0000000000e+00 0.0000000000e+00
0.0000000000e+00 0.0000000000e+00 0.0000000000e+00
0.0000000000e+00 0.0000000000e+00 0.0000000000e+00
0.0000000000e+00 0.0000000000e+00 0.0000000000e+00
0.0000000000e+00 0.0000000000e+00 0.0000000000e+00
0.0000000000e+00 0.0000000000e+00 0.0000000000e+00
0.0000000000e+00 0.0000000000e+00 0.0000000000e+00
0.0000000000e+00 0.0000000000e+00 0.0000000000e+00
0.0000000000e+00 0.0000000000e+00 0.0000000000e+00
0.0000000000e+00 0.0000000000e+00 0.0000000000e+00
0.0000000000e+00 0.0000000000e+00 0.0000000000e+00
0.0000000000e+00 0.0000000000e+00 0.0000000000e+00
0.0000000000e+00 0.0000000000e+00 0.0000000000e+00
0.0000000000e+00 0.0000000000e+00 0.0000000000e+00
0.0000000000e+00 0.0000000000e+00 0.0000000000e+00
0.0000000000e+00 0.0000000000e+00 0.0000000000e+00
0.0000000000e+00 0.0000000000e+00 0.0000000000e+00
0.0000000000e+00 0.0000000000e+00 0.0000000000e+00
0.0000000000e+00 0.0000000000e+00 0.0000000000e+00
0.0000000000e+00 0.0000000000e+00 0.0000000000e+00
0.0000000000e+00 0.0000000000e+00 0.0000000000e+00
0.0000000000e+00 0.0000000000e+00 0.0000000000e+00
0.0000000000e+00 0.0000000000e+00 0.0000000000e+00
0.0000000000e+00 0.0000000000e+00 0.0000000000e+00
0.0000000000e+00 0.0000000000e+00 0.0000000000e+00
0.0000000000e+00 0.0000000000e+00 0.0000000000e+00
0.0000000000e+00 0.0000000000e+00 0.0000000000e+00
0.0000000000e+00 0.0000000000e+00 0.0000000000e+00
0.0000000000e+00 0.0000000000e+00 0.0000000000e+00
0.0000000000e+00 0.0000000000e+00 0.0000000000e+00
0.0000000000e+00 0.0000000000e+00 0.0000000000e+00
0.0000000000e+00 0.0000000000e+00 0.0000000000e+00
0.0000000000e+00 0.0000000000e+00 0.0000000000e+00
0.0000000000e+00 0.0000000000e+00 0.0000000000e+00
0.0000000000e+00 0.0000000000e+00 0.0000000000e+00
0.0000000000e+00 0.0000000000e+00 0.0000000000e+00
0.0000000000e+00 0.0000000000e+00 0.0000000000e+00
0.0000000000e+00 0.0000000000e+00 0.0000000000e+00
0.0000000000e+00 0.0000000000e+00 0.0000000000e+00
0.0000000000e+00 0.0000000000e+00 0.0000000000e+00
0.0000000000e+00 0.0000000000e+00 0.0000000000e+00
0.0000000000e+00 0.0000000000e+00 0.0000000000e+00
0.0000000000e+00 0.0000000000e+00 0.0000000000e+00
0.0000000000e+00 0.0000000000e+00 0.0000000000e+00
0.0000000000e+00 0.0000000000e+00 0.0000000000e+00
0.0000000000e+00 0.0000000000e+00 0.0000000000e+00
0.0000000000e+00 0.0000000000e+00 0.0000000000e+00
0.0000000000e+00 0.0000000000e+00 0.0000000000e+00
0.0000000000e+00 0.0000000000e+00 0.0000000000e+00
0.0000000000e+00 0.0000000000e+00 0.0000000000e+00
0.0000000000e+00 0.0000000000e+00 0.0000000000e+00
0.0000000000e+00 0.0000000000e+00 0.0000000000e+00
0.0000000000e+00 0.0000000000e+00 0.0000000000e+00
0.0000000000e+00 0.0000000000e+00 0.0000000000e+00
0.0000000000e+00 0.0000000000e+00 0.0000000000e+00
0.0000000000e+00 0.0000000000e+00 0.0000000000e+00
0.0000000000e+00 0.0000000000e+00 0.0000000000e+00
0.0000000000e+00 0.0000000000e+00 0.0000000000e+00
0.0000000000e+00 0.0000000000e+00 0.0000000000e+00
-3.1007210171e-07 -2.8920957812e-07 -4.6713760241e-06
-3.0970835243e-07 1.2814412672e-07 1.6030593990e-07
-1.4587225860e-07 -4.2718717414e-07 -3.3754432180e-07
-6.2161398526e-07 1.6392718364e-07 4.8470219240e-08
0.0000000000e+00 0.0000000000e+00 0.0000000000e+00
0.0000000000e+00 0.0000000000e+00 0.0000000000e+00
0.0000000000e+00 0.0000000000e+00 0.0000000000e+00
0.0000000000e+00 0.0000000000e+00 0.0000000000e+00
0.0000000000e+00 0.0000000000e+00 0.0000000000e+00
0.0000000000e+00 0.0000000000e+00 0.0000000000e+00
0.0000000000e+00 0.0000000000e+00 0.0000000000e+00
0.0000000000e+00 0.0000000000e+00 0.0000000000e+00
0.0000000000e+00 0.0000000000e+00 0.0000000000e+00
0.0000000000e+00 0.0000000000e+00 0.0000000000e+00
0.0000000000e+00 0.0000000000e+00 0.0000000000e+00
0.0000000000e+00 0.0000000000e+00 0.0000000000e+00
0.0000000000e+00 0.0000000000e+00 0.0000000000e+00
0.0000000000e+00 0.0000000000e+00 0.0000000000e+00
0.0000000000e+00 0.0000000000e+00 0.0000000000e+00
0.0000000000e+00 0.0000000000e+00 0.0000000000e+00
0.0000000000e+00 0.0000000000e+00 0.0000000000e+00
0.0000000000e+00 0.0000000000e+00 0.0000000000e+00
0.0000000000e+00 0.0000000000e+00 0.0000000000e+00
0.0000000000e+00 0.0000000000e+00 0.0000000000e+00
0.0000000000e+00 0.0000000000e+00 0.0000000000e+00
0.0000000000e+00 0.0000000000e+00 0.0000000000e+00
0.0000000000e+00 0.0000000000e+00 0.0000000000e+00
0.0000000000e+00 0.0000000000e+00 0.0000000000e+00
0.0000000000e+00 0.0000000000e+00 0.0000000000e+00
0.0000000000e+00 0.0000000000e+00 0.0000000000e+00
0.0000000000e+00 0.0000000000e+00 0.0000000000e+00
0.0000000000e+00 0.0000000000e+00 0.0000000000e+00
0.0000000000e+00 0.0000000000e+00 0.0000000000e+00
0.0000000000e+00 0.0000000000e+00 0.0000000000e+00
0.0000000000e+00 0.0000000000e+00 0.0000000000e+00
0.0000000000e+00 0.0000000000e+00 0.0000000000e+00
0.0000000000e+00 0.0000000000e+00 0.0000000000e+00
0.0000000000e+00 0.0000000000e+00 0.0000000000e+00
0.0000000000e+00 0.0000000000e+00 0.0000000000e+00
0.0000000000e+00 0.0000000000e+00 0.0000000000e+00
0.0000000000e+00 0.0000000000e+00 0.0000000000e+00
0.0000000000e+00 0.0000000000e+00 0.0000000000e+00
0.0000000000e+00 0.0000000000e+00 0.0000000000e+00
0.0000000000e+00 0.0000000000e+00 0.0000000000e+00
-9.7982196010e-07 6.6041173181e-08 5.2563196998e-06
-3.9769602711e-07 2.1201973132e-07 5.6067426998e-06
2.0865415823e-07 -7.4241643524e-07 -1.1376662561e-06
-3.2144204866e-07 -7.5784543482e-07 -3.2902486510e-06
0.0000000000e+00 0.0000000000e+00 0.0000000000e+00
0.0000000000e+00 0.0000000000e+00 0.0000000000e+00
0.0000000000e+00 0.0000000000e+00 0.0000000000e+00
0.0000000000e+00 0.0000000000e+00 0.0000000000e+00
7.5419934240e-07 -6.6413814337e-07 -8.2888972949e-06
7.4568315648e-08 -1.7543438233e-08 -1.1849466824e-06
0.0000000000e+00 0.0000000000e+00 0.0000000000e+00
0.0000000000e+00 0.0000000000e+00 0.0000000000e+00
0.0000000000e+00 0.0000000000e+00 0.0000000000e+00
0.0000000000e+00 0.0000000000e+00 0.0000000000e+00
0.0000000000e+00 0.0000000000e+00 0.0000000000e+00
0.0000000000e+00 0.0000000000e+00 0.0000000000e+00
0.0000000000e+00 0.0000000000e+00 0.0000000000e+00
0.0000000000e+00 0.0000000000e+00 0.0000000000e+00
0.0000000000e+00 0.0000000000e+00 0.0000000000e+00
0.0000000000e+00 0.0000000000e+00 0.0000000000e+00
0.0000000000e+00 0.0000000000e+00 0.0000000000e+00
0.0000000000e+00 0.0000000000e+00 0.0000000000e+00
0.0000000000e+00 0.0000000000e+00 0.0000000000e+00
0.0000000000e+00 0.0000000000e+00 0.0000000000e+00
0.0000000000e+00 0.0000000000e+00 0.0000000000e+00
0.0000000000e+00 0.0000000000e+00 0.0000000000e+00
0.0000000000e+00 0.0000000000e+00 0.0000000000e+00
0.0000000000e+00 0.0000000000e+00 0.0000000000e+00
0.0000000000e+00 0.0000000000e+00 0.0000000000e+00
0.0000000000e+00 0.0000000000e+00 0.0000000000e+00
0.0000000000e+00 0.0000000000e+00 0.0000000000e+00
0.0000000000e+00 0.0000000000e+00 0.0000000000e+00
0.0000000000e+00 0.0000000000e+00 0.0000000000e+00
0.0000000000e+00 0.0000000000e+00 0.0000000000e+00
0.0000000000e+00 0.0000000000e+00 0.0000000000e+00
0.0000000000e+00 0.0000000000e+00 0.0000000000e+00
0.0000000000e+00 0.0000000000e+00 0.0000000000e+00
0.0000000000e+00 0.0000000000e+00 0.0000000000e+00
0.0000000000e+00 0.0000000000e+00 0.0000000000e+00
0.0000000000e+00 0.0000000000e+00 0.0000000000e+00
0.0000000000e+00 0.0000000000e+00 0.0000000000e+00
0.0000000000e+00 0.0000000000e+00 0.0000000000e+00
0.0000000000e+00 0.0000000000e+00 0.0000000000e+00
0.0000000000e+00 0.0000000000e+00 0.0000000000e+00
0.0000000000e+00 0.0000000000e+00 0.0000000000e+00
0.0000000000e+00 0.0000000000e+00 0.0000000000e+00
0.0000000000e+00 0.0000000000e+00 0.0000000000e+00
0.0000000000e+00 0.0000000000e+00 0.0000000000e+00
0.0000000000e+00 0.0000000000e+00 0.0000000000e+00
0.0000000000e+00 0.0000000000e+00 0.0000000000e+00
0.0000000000e+00 0.0000000000e+00 0.0000000000e+00
0.0000000000e+00 0.0000000000e+00 0.0000000000e+00
0.0000000000e+00 0.0000000000e+00 0.0000000000e+00
0.0000000000e+00 0.0000000000e+00 0.0000000000e+00
0.0000000000e+00 0.0000000000e+00 0.0000000000e+00
0.0000000000e+00 0.0000000000e+00 0.0000000000e+00
0.0000000000e+00 0.0000000000e+00 0.0000000000e+00
0.0000000000e+00 0.0000000000e+00 0.0000000000e+00
-1.6526393925e-06 -6.5307648395e-08 1.3301542921e-06
0.0000000000e+00 0.0000000000e+00 0.0000000000e+00
0.0000000000e+00 0.0000000000e+00 0.0000000000e+00
0.0000000000e+00 0.0000000000e+00 0.0000000000e+00
0.0000000000e+00 0.0000000000e+00 0.0000000000e+00
0.0000000000e+00 0.0000000000e+00 0.0000000000e+00
0.0000000000e+00 0.0000000000e+00 0.0000000000e+00
0.0000000000e+00 0.0000000000e+00 0.0000000000e+00
0.0000000000e+00 0.0000000000e+00 0.0000000000e+00
0.0000000000e+00 0.0000000000e+00 0.0000000000e+00
0.0000000000e+00 0.0000000000e+00 0.0000000000e+00
0.0000000000e+00 0.0000000000e+00 0.0000000000e+00
0.0000000000e+00 0.0000000000e+00 0.0000000000e+00
0.0000000000e+00 0.0000000000e+00 0.0000000000e+00
0.0000000000e+00 0.0000000000e+00 0.0000000000e+00
0.0000000000e+00 0.0000000000e+00 0.0000000000e+00
0.0000000000e+00 0.0000000000e+00 0.0000000000e+00
0.0000000000e+00 0.0000000000e+00 0.0000000000e+00
0.0000000000e+00 0.0000000000e+00 0.0000000000e+00
0.0000000000e+00 0.0000000000e+00 0.0000000000e+00
0.0000000000e+00 0.0000000000e+00 0.0000000000e+00
0.0000000000e+00 0.0000000000e+00 0.0000000000e+00
0.0000000000e+00 0.0000000000e+00 0.0000000000e+00
0.0000000000e+00 0.0000000000e+00 0.0000000000e+00
0.0000000000e+00 0.0000000000e+00 0.0000000000e+00
0.0000000000e+00 0.0000000000e+00 0.0000000000e+00
0.0000000000e+00 0.0000000000e+00 0.0000000000e+00
0.0000000000e+00 0.0000000000e+00 0.0000000000e+00
0.0000000000e+00 0.0000000000e+00 0.0000000000e+00
0.0000000000e+00 0.0000000000e+00 0.0000000000e+00
0.0000000000e+00 0.0000000000e+00 0.0000000000e+00
0.0000000000e+00 0.0000000000e+00 0.0000000000e+00
0.0000000000e+00 0.0000000000e+00 0.0000000000e+00
0.0000000000e+00 0.0000000000e+00 0.0000000000e+00
0.0000000000e+00 0.0000000000e+00 0.0000000000e+00
0.0000000000e+00 0.0000000000e+00 0.0000000000e+00
0.0000000000e+00 0.0000000000e+00 0.0000000000e+00
0.0000000000e+00 0.0000000000e+00 0.0000000000e+00
0.0000000000e+00 0.0000000000e+00 0.0000000000e+00
0.0000000000e+00 0.0000000000e+00 0.0000000000e+00
0.0000000000e+00 0.0000000000e+00 0.0000000000e+00
0.0000000000e+00 0.0000000000e+00 0.0000000000e+00
0.0000000000e+00 0.0000000000e+00 0.0000000000e+00
0.0000000000e+00 0.0000000000e+00 0.0000000000e+00
0.0000000000e+00 0.0000000000e+00 0.0000000000e+00
0.0000000000e+00 0.0000000000e+00 0.0000000000e+00
0.0000000000e+00 0.0000000000e+00 0.0000000000e+00
0.0000000000e+00 0.0000000000e+00 0.0000000000e+00
0.0000000000e+00 0.0000000000e+00 0.0000000000e+00
0.0000000000e+00 0.0000000000e+00 0.0000000000e+00
0.0000000000e+00 0.0000000000e+00 0.0000000000e+00
0.0000000000e+00 0.0000000000e+00 0.0000000000e+00
0.0000000000e+00 0.0000000000e+00 0.0000000000e+00
0.0000000000e+00 0.0000000000e+00 0.0000000000e+00
0.0000000000e+00 0.0000000000e+00 0.0000000000e+00
0.0000000000e+00 0.0000000000e+00 0.0000000000e+00
0.0000000000e+00 0.0000000000e+00 0.0000000000e+00
0.0000000000e+00 0.0000000000e+00 0.0000000000e+00
0.0000000000e+00 0.0000000000e+00 0.0000000000e+00
0.0000000000e+00 0.0000000000e+00 0.0000000000e+00
0.0000000000e+00 0.0000000000e+00 0.0000000000e+00
0.0000000000e+00 0.0000000000e+00 0.0000000000e+00
0.0000000000e+00 0.0000000000e+00 0.0000000000e+00
0.0000000000e+00 0.0000000000e+00 0.0000000000e+00
0.0000000000e+00 0.0000000000e+00 0.0000000000e+00
0.0000000000e+00 0.0000000000e+00 0.0000000000e+00
0.0000000000e+00 0.0000000000e+00 0.0000000000e+00
0.0000000000e+00 0.0000000000e+00 0.0000000000e+00
0.0000000000e+00 0.0000000000e+00 0.0000000000e+00
7.6373370676e-07 4.4744438137e-07 -1.5132513918e-06
1.0066351545e-06 -9.6445901924e-07 -1.7553542224e-06
1.5880347703e-07 -6.5928556721e-07 -1.4551423807e-06
0.0000000000e+00 0.0000000000e+00 0.0000000000e+00
0.0000000000e+00 0.0000000000e+00 0.0000000000e+00
0.0000000000e+00 0.0000000000e+00 0.0000000000e+00
0.0000000000e+00 0.0000000000e+00 0.0000000000e+00
0.0000000000e+00 0.0000000000e+00 0.0000000000e+00
0.0000000000e+00 0.0000000000e+00 0.0000000000e+00
0.0000000000e+00 0.0000000000e+00 0.0000000000e+00
0.0000000000e+00 0.0000000000e+00 0.0000000000e+00
0.0000000000e+00 0.0000000000e+00 0.0000000000e+00
0.0000000000e+00 0.0000000000e+00 0.0000000000e+00
0.0000000000e+00 0.0000000000e+00 0.0000000000e+00
0.0000000000e+00 0.0000000000e+00 0.0000000000e+00
0.0000000000e+00 0.0000000000e+00 0.0000000000e+00
0.0000000000e+00 0.0000000000e+00 0.0000000000e+00
0.0000000000e+00 0.0000000000e+00 0.0000000000e+00
0.0000000000e+00 0.0000000000e+00 0.0000000000e+00
0.0000000000e+00 0.0000000000e+00 0.0000000000e+00
0.0000000000e+00 0.0000000000e+00 0.0000000000e+00
0.0000000000e+00 0.0000000000e+00 0.0000000000e+00
0.0000000000e+00 0.0000000000e+00 0.0000000000e+00
0.0000000000e+00 0.0000000000e+00 0.0000000000e+00
0.0000000000e+00 0.0000000000e+00 0.0000000000e+00
0.0000000000e+00 0.0000000000e+00 0.0000000000e+00
0.0000000000e+00 0.0000000000e+00 0.0000000000e+00
0.0000000000e+00 0.0000000000e+00 0.0000000000e+00
0.0000000000e+00 0.0000000000e+00 0.0000000000e+00
0.0000000000e+00 0.0000000000e+00 0.0000000000e+00
0.0000000000e+00 0.0000000000e+00 0.0000000000e+00
0.0000000000e+00 0.0000000000e+00 0.0000000000e+00
0.0000000000e+00 0.0000000000e+00 0.0000000000e+00
0.0000000000e+00 0.0000000000e+00 0.0000000000e+00
0.0000000000e+00 0.0000000000e+00 0.0000000000e+00
0.0000000000e+00 0.0000000000e+00 0.0000000000e+00
0.0000000000e+00 0.0000000000e+00 0.0000000000e+00
0.0000000000e+00 0.0000000000e+00 0.0000000000e+00
0.0000000000e+00 0.0000000000e+00 0.0000000000e+00
0.0000000000e+00 0.0000000000e+00 0.0000000000e+00
0.0000000000e+00 0.0000000000e+00 0.0000000000e+00
0.0000000000e+00 0.0000000000e+00 0.0000000000e+00
0.0000000000e+00 0.0000000000e+00 0.0000000000e+00
0.0000000000e+00 0.0000000000e+00 0.0000000000e+00
0.0000000000e+00 0.0000000000e+00 0.0000000000e+00
0.0000000000e+00 0.0000000000e+00 0.0000000000e+00
0.0000000000e+00 0.0000000000e+00 0.0000000000e+00
0.0000000000e+00 0.0000000000e+00 0.0000000000e+00
0.0000000000e+00 0.0000000000e+00 0.0000000000e+00
0.0000000000e+00 0.0000000000e+00 0.0000000000e+00
0.0000000000e+00 0.0000000000e+00 0.0000000000e+00
0.0000000000e+00 0.0000000000e+00 0.0000000000e+00
0.0000000000e+00 0.0000000000e+00 0.0000000000e+00
0.0000000000e+00 0.0000000000e+00 0.0000000000e+00
2.1572730614e-07 -3.0868864423e-07 -1.5653025356e-06