# vtk DataFile Version 3.0
VEM 3D Result
ASCII
DATASET UNSTRUCTURED_GRID

POINTS 1842 double
-0.2000000000 154.8166027458 50.0500000000
-0.2000000000 113.2521279478 50.0500000000
73.8749223573 200.2000000000 50.0500000000
96.3441522915 200.2000000000 50.0500000000
-0.2000000000 108.9496304034 50.0500000000
-0.2000000000 105.9859803937 50.0500000000
-0.2000000000 106.5258741349 50.0500000000
-0.2000000000 200.2000000000 50.0500000000
-0.2000000000 149.5748944228 38.0320952457
-0.2000000000 166.3171246673 33.1529248004
-0.2000000000 139.7103431840 25.5492209843
200.2000000000 200.2000000000 -0.0500000000
28.3788797928 200.2000000000 50.0500000000
103.4025370918 200.2000000000 50.0500000000
136.0569568464 200.2000000000 50.0500000000
124.3702557007 200.2000000000 50.0500000000
146.8898164150 200.2000000000 50.0500000000
122.3501107454 200.2000000000 50.0500000000
-0.2000000000 136.7086430358 50.0500000000
-0.2000000000 156.0819570889 50.0500000000
-0.2000000000 -0.2000000000 40.1281823150
-0.2000000000 66.3855790646 44.5333693185
9.2706985037 109.2181912826 50.0500000000
-0.2000000000 154.1793185184 50.0500000000
-0.2000000000 108.7357137588 50.0500000000
121.8495776876 200.2000000000 50.0500000000
101.7128114811 200.2000000000 50.0500000000
199.9665974848 168.0878703970 50.0500000000
156.8759076114 124.5529466074 50.0500000000
200.2000000000 131.3347769752 50.0500000000
200.2000000000 83.8698844540 50.0500000000
-0.2000000000 200.2000000000 9.4323712699
-0.2000000000 200.2000000000 13.1758641961
101.5442767385 90.3801522345 29.2335488340
200.2000000000 174.3437132353 50.0500000000
200.2000000000 200.2000000000 50.0500000000
198.2170111560 200.2000000000 -0.0500000000
-0.2000000000 200.2000000000 24.4357570465
48.0683296382 200.2000000000 46.7147156059
62.6741804785 200.2000000000 40.6087124703
43.3211887836 200.2000000000 50.0500000000
-0.2000000000 84.7695838753 29.7484389790
139.1963744611 115.9916542951 50.0500000000
138.7320230577 121.3655074291 50.0500000000
167.1189303679 138.3819253973 50.0500000000
171.6701175908 129.6991639579 50.0500000000
179.4307741117 98.8297668147 50.0500000000
40.5160135498 84.8801630477 50.0500000000
177.6760676225 95.1880148270 50.0500000000
180.1666153679 91.6719474218 50.0500000000
195.3317744189 85.8411611425 50.0500000000
161.9130798759 84.5433477622 50.0500000000
200.2000000000 97.3985559693 50.0500000000
160.8341292266 86.9352407528 50.0500000000
153.1195286622 82.2803014939 50.0500000000
200.2000000000 82.3943089210 50.0500000000
200.2000000000 -0.2000000000 50.0500000000
58.7986291330 200.2000000000 35.8399676507
-0.2000000000 40.4810147922 39.5606735992
-0.2000000000 54.4575943530 41.8199720610
-0.2000000000 100.6397247400 36.1615803350
-0.2000000000 96.3469328704 38.9837872541
-0.2000000000 96.3469328704 35.6483239696
-0.2000000000 110.6805811808 38.3475433387
-0.2000000000 78.9651639344 47.2420914447
-0.2000000000 74.4484920635 50.0500000000
-0.2000000000 56.7738813510 50.0500000000
-0.2000000000 46.5069670142 40.0892695407
-0.2000000000 -0.2000000000 50.0500000000
-0.2000000000 85.1616808081 50.0500000000
-0.2000000000 79.2406200840 50.0500000000
-0.2000000000 80.6570491252 50.0500000000
-0.2000000000 80.0395833333 50.0500000000
-0.2000000000 78.9651639344 50.0500000000
-0.2000000000 56.9296342750 50.0500000000
-0.2000000000 57.4095691383 50.0500000000
-0.2000000000 39.9818904233 39.8617377649
-0.2000000000 42.7303071164 39.2489235957
200.2000000000 129.7147587342 38.8105821118
200.2000000000 131.3788978735 50.0500000000
200.2000000000 179.6274998653 50.0500000000
200.2000000000 100.4386688159 50.0500000000
200.2000000000 130.4799141221 50.0500000000
200.2000000000 82.0506799494 50.0500000000
200.2000000000 74.4484920635 50.0500000000
200.2000000000 75.1102269390 50.0500000000
200.2000000000 83.2730277735 50.0500000000
200.2000000000 70.3517526382 50.0500000000
200.2000000000 82.6489423077 50.0500000000
200.2000000000 80.6831962874 50.0500000000
200.2000000000 81.6822344644 50.0500000000
200.2000000000 81.7791993384 50.0500000000
200.2000000000 65.6721500943 50.0500000000
200.2000000000 65.3020111397 50.0500000000
200.2000000000 181.3869357639 50.0500000000
200.2000000000 106.4752739098 33.5423212924
200.2000000000 59.6675552923 50.0500000000
200.2000000000 70.3567453656 27.4741638923
200.2000000000 70.0256015953 27.4941482096
200.2000000000 -0.2000000000 35.5200045585
200.2000000000 19.5398880301 23.3472127714
135.0367100471 200.2000000000 50.0500000000
183.2631305024 200.2000000000 50.0500000000
95.1449157064 125.1882842510 34.1235616231
124.6500966781 120.2707540890 48.3382972474
67.2092013889 96.3469328704 38.9837872541
200.2000000000 -0.2000000000 22.5526401426
200.2000000000 -0.2000000000 24.5436030243
123.7885287118 113.5505239521 39.8796742453
106.3521898369 117.7481610886 32.9929258181
116.8161231884 148.1589673913 29.4078705276
200.2000000000 82.3636548658 29.2041288678
200.2000000000 80.7463251946 50.0500000000
200.2000000000 69.2311232828 50.0500000000
186.3957955596 -0.2000000000 -0.0500000000
151.0228365385 200.2000000000 8.5529007126
189.9102208393 200.2000000000 21.4864280805
200.2000000000 200.2000000000 44.5333693185
183.5060508223 200.2000000000 29.7484389790
38.0248091603 200.2000000000 20.2411028447
95.4662949195 142.1002323420 32.9316140025
88.8501938853 136.4411773694 34.2796272504
88.1774198598 142.3559823441 35.7688405882
-0.2000000000 -0.2000000000 21.6376341869
-0.2000000000 -0.2000000000 25.2136265117
-0.2000000000 95.1880148270 -0.0500000000
-0.2000000000 124.5529466074 4.6604779606
-0.2000000000 174.3437132353 20.1241014394
-0.2000000000 168.0878703970 18.5601407298
-0.2000000000 144.6206621813 20.2800216891
-0.2000000000 133.8770402136 15.1697843205
-0.2000000000 138.4293417641 19.5141682521
-0.2000000000 121.3655074291 13.5964177244
-0.2000000000 138.6909376637 25.3806782838
-0.2000000000 102.1195693309 31.0309588742
-0.2000000000 138.8869921164 24.9815590178
-0.2000000000 138.3819253973 22.9428782505
-0.2000000000 139.5513909869 21.9829799810
-0.2000000000 110.2057738285 29.5264210432
-0.2000000000 103.4670291626 30.5710721547
-0.2000000000 89.2632299270 29.1585524065
-0.2000000000 82.3636548658 29.2041288678
-0.2000000000 82.0455601539 29.2380010510
-0.2000000000 70.9621114157 28.0057001917
-0.2000000000 -0.2000000000 25.2276471231
-0.2000000000 -0.2000000000 23.5789537148
-0.2000000000 -0.2000000000 35.5200045585
-0.2000000000 -0.2000000000 34.4264807748
-0.2000000000 -0.2000000000 34.6595951452
103.0798136646 94.5254658385 50.0500000000
107.4781231625 51.1605014166 50.0500000000
180.0341409692 93.7765693833 50.0500000000
200.2000000000 70.3088393958 50.0500000000
200.2000000000 61.8582740612 50.0500000000
200.2000000000 50.0548998120 50.0500000000
200.2000000000 33.4454538323 50.0500000000
151.1570561342 76.7328397811 50.0500000000
142.7310982340 79.6068083690 50.0500000000
143.5283320352 79.8119788326 50.0500000000
200.2000000000 -0.2000000000 34.8008772032
-0.2000000000 -0.2000000000 35.3003183869
-0.2000000000 -0.2000000000 27.4542064662
-0.2000000000 -0.2000000000 28.9169562275
-0.2000000000 -0.2000000000 33.2263353006
24.9841792797 200.2000000000 22.0153905526
24.9841792797 200.2000000000 22.8992390483
35.9073275862 200.2000000000 20.7444773707
90.3311365679 200.2000000000 18.7790387337
133.0110382846 200.2000000000 24.7721252618
75.3016119081 200.2000000000 36.5104976793
60.6852827051 200.2000000000 18.1957033415
114.5007341508 200.2000000000 33.6552307328
16.6080894627 200.2000000000 23.9712175806
22.2745847422 200.2000000000 25.2584573942
48.0719588882 200.2000000000 32.5488301892
64.0279269725 200.2000000000 40.0892695407
64.1433080058 200.2000000000 36.9861507370
71.7143170114 200.2000000000 37.4436274775
65.8114285714 200.2000000000 50.0500000000
65.3108811516 200.2000000000 34.3591111588
10.1098436844 45.5740839646 -0.0500000000
91.8521789791 90.1109272967 20.1191629203
-0.2000000000 46.1791065352 40.6087124703
-0.2000000000 33.0105335701 46.7147156059
200.2000000000 134.6036523091 36.9907274263
200.2000000000 200.2000000000 28.9088134766
200.2000000000 200.2000000000 43.1213339512
200.2000000000 200.2000000000 30.4216006416
200.2000000000 116.4529583913 33.0405473775
200.2000000000 96.3469328704 35.6483239696
200.2000000000 96.3469328704 38.9837872541
200.2000000000 100.6397247400 36.1615803350
200.2000000000 80.0395833333 50.0500000000
200.2000000000 78.9651639344 50.0500000000
200.2000000000 80.6570491252 50.0500000000
154.8207394173 102.6113145959 -0.0500000000
200.2000000000 103.2881705217 -0.0500000000
162.8660587819 144.6206621813 -0.0500000000
200.2000000000 115.9916542951 13.2966884736
200.2000000000 90.3611710840 13.0334690769
200.2000000000 90.9442030471 12.3455289567
200.2000000000 83.9553766376 9.2550512589
200.2000000000 105.9165091624 14.9406313250
200.2000000000 138.7419170965 13.6126997271
200.2000000000 141.9583549626 -0.0404089234
200.2000000000 46.5069670142 40.0892695407
200.2000000000 46.1791065352 40.6087124703
200.2000000000 33.0105335701 46.7147156059
200.2000000000 -0.2000000000 34.7826652552
200.2000000000 -0.2000000000 9.6971191487
200.2000000000 11.4005773724 21.4864280805
200.2000000000 -0.2000000000 21.3220469394
200.2000000000 6.3211073861 21.2817782958
200.2000000000 86.9352407528 2.2121690123
200.2000000000 92.2600454197 -0.0500000000
200.2000000000 102.2453280580 15.5250087859
200.2000000000 101.4166656941 14.7319530080
200.2000000000 -0.2000000000 -0.0500000000
200.2000000000 -0.2000000000 15.2240266747
200.2000000000 -0.2000000000 11.5755496187
157.3472365599 200.2000000000 38.0320952457
82.5954949239 149.5973984772 37.6664121986
167.4438926274 82.0455601539 29.2380010510
119.3545081967 78.9651639344 47.2420914447
149.3630474821 102.1195693309 31.0309588742
123.4205873309 110.6805811808 38.3475433387
109.6919272922 100.4205092221 30.5573167268
114.3163073305 106.3429608502 31.1640975871
113.4665985261 106.6084948516 31.3839929320
142.4142273340 167.3575455005 33.5742286242
[...]
POINT_DATA 1842
VECTORS displacement double
0.0000000000e+00 0.0000000000e+00 0.0000000000e+00
0.0000000000e+00 0.0000000000e+00 0.0000000000e+00
0.0000000000e+00 0.0000000000e+00 0.0000000000e+00
0.0000000000e+00 0.0000000000e+00 0.0000000000e+00
0.0000000000e+00 0.0000000000e+00 0.0000000000e+00
0.0000000000e+00 0.0000000000e+00 0.0000000000e+00
0.0000000000e+00 0.0000000000e+00 0.0000000000e+00
0.0000000000e+00 0.0000000000e+00 0.0000000000e+00
0.0000000000e+00 0.0000000000e+00 0.0000000000e+00
0.0000000000e+00 0.0000000000e+00 0.0000000000e+00
0.0000000000e+00 0.0000000000e+00 0.0000000000e+00
0.0000000000e+00 0.0000000000e+00 0.0000000000e+00
0.0000000000e+00 0.0000000000e+00 0.0000000000e+00
0.0000000000e+00 0.0000000000e+00 0.0000000000e+00
0.0000000000e+00 0.0000000000e+00 0.0000000000e+00
0.0000000000e+00 0.0000000000e+00 0.0000000000e+00
0.0000000000e+00 0.0000000000e+00 0.0000000000e+00
0.0000000000e+00 0.0000000000e+00 0.0000000000e+00
0.0000000000e+00 0.0000000000e+00 0.0000000000e+00
0.0000000000e+00 0.0000000000e+00 0.0000000000e+00
0.0000000000e+00 0.0000000000e+00 0.0000000000e+00
0.0000000000e+00 0.0000000000e+00 0.0000000000e+00
0.0000000000e+00 0.0000000000e+00 0.0000000000e+00
0.0000000000e+00 0.0000000000e+00 0.0000000000e+00
0.0000000000e+00 0.0000000000e+00 0.0000000000e+00
0.0000000000e+00 0.0000000000e+00 0.0000000000e+00
0.0000000000e+00 0.0000000000e+00 0.0000000000e+00
0.0000000000e+00 0.0000000000e+00 0.0000000000e+00
0.0000000000e+00 0.0000000000e+00 0.0000000000e+00
0.0000000000e+00 0.0000000000e+00 0.0000000000e+00
0.0000000000e+00 0.0000000000e+00 0.0000000000e+00
0.0000000000e+00 0.0000000000e+00 0.0000000000e+00
0.0000000000e+00 0.0000000000e+00 0.0000000000e+00
-4.5216905672e-07 -4.5392387899e-07 -6.7240362272e-07
0.0000000000e+00 0.0000000000e+00 0.0000000000e+00
0.0000000000e+00 0.0000000000e+00 0.0000000000e+00
0.0000000000e+00 0.0000000000e+00 0.0000000000e+00
0.0000000000e+00 0.0000000000e+00 0.0000000000e+00
0.0000000000e+00 0.0000000000e+00 0.0000000000e+00
0.0000000000e+00 0.0000000000e+00 0.0000000000e+00
0.0000000000e+00 0.0000000000e+00 0.0000000000e+00
0.0000000000e+00 0.0000000000e+00 0.0000000000e+00
0.0000000000e+00 0.0000000000e+00 0.0000000000e+00
0.0000000000e+00 0.0000000000e+00 0.0000000000e+00
0.0000000000e+00 0.0000000000e+00 0.0000000000e+00
0.0000000000e+00 0.0000000000e+00 0.0000000000e+00
0.0000000000e+00 0.0000000000e+00 0.0000000000e+00
0.0000000000e+00 0.0000000000e+00 0.0000000000e+00
0.0000000000e+00 0.0000000000e+00 0.0000000000e+00
0.0000000000e+00 0.0000000000e+00 0.0000000000e+00
0.0000000000e+00 0.0000000000e+00 0.0000000000e+00
0.0000000000e+00 0.0000000000e+00 0.0000000000e+00
0.0000000000e+00 0.0000000000e+00 0.0000000000e+00
0.0000000000e+00 0.0000000000e+00 0.0000000000e+00
0.0000000000e+00 0.0000000000e+00 0.0000000000e+00
0.0000000000e+00 0.0000000000e+00 0.0000000000e+00
0.0000000000e+00 0.0000000000e+00 0.0000000000e+00
0.0000000000e+00 0.0000000000e+00 0.0000000000e+00
0.0000000000e+00 0.0000000000e+00 0.0000000000e+00
0.0000000000e+00 0.0000000000e+00 0.0000000000e+00
0.0000000000e+00 0.0000000000e+00 0.0000000000e+00
0.0000000000e+00 0.0000000000e+00 0.0000000000e+00
0.0000000000e+00 0.0000000000e+00 0.0000000000e+00
0.0000000000e+00 0.0000000000e+00 0.0000000000e+00
0.0000000000e+00 0.0000000000e+00 0.0000000000e+00
0.0000000000e+00 0.0000000000e+00 0.0000000000e+00
0.0000000000e+00 0.0000000000e+00 0.0000000000e+00
0.0000000000e+00 0.0000000000e+00 0.0000000000e+00
0.0000000000e+00 0.0000000000e+00 0.0000000000e+00
0.0000000000e+00 0.0000000000e+00 0.0000000000e+00
0.0000000000e+00 0.0000000000e+00 0.0000000000e+00
0.0000000000e+00 0.0000000000e+00 0.0000000000e+00
0.0000000000e+00 0.0000000000e+00 0.0000000000e+00
0.0000000000e+00 0.0000000000e+00 0.0000000000e+00
0.0000000000e+00 0.0000000000e+00 0.0000000000e+00
0.0000000000e+00 0.0000000000e+00 0.0000000000e+00
0.0000000000e+00 0.0000000000e+00 0.0000000000e+00
0.0000000000e+00 0.0000000000e+00 0.0000000000e+00
0.0000000000e+00 0.0000000000e+00 0.0000000000e+00
0.0000000000e+00 0.0000000000e+00 0.0000000000e+00
0.0000000000e+00 0.0000000000e+00 0.0000000000e+00
0.0000000000e+00 0.0000000000e+00 0.0000000000e+00
0.0000000000e+00 0.0000000000e+00 0.0000000000e+00
0.0000000000e+00 0.0000000000e+00 0.0000000000e+00
0.0000000000e+00 0.0000000000e+00 0.0000000000e+00
0.0000000000e+00 0.0000000000e+00 0.0000000000e+00
0.0000000000e+00 0.0000000000e+00 0.0000000000e+00
0.0000000000e+00 0.0000000000e+00 0.0000000000e+00
0.0000000000e+00 0.0000000000e+00 0.0000000000e+00
0.0000000000e+00 0.0000000000e+00 0.0000000000e+00
0.0000000000e+00 0.0000000000e+00 0.0000000000e+00
0.0000000000e+00 0.0000000000e+00 0.0000000000e+00
0.0000000000e+00 0.0000000000e+00 0.0000000000e+00
0.0000000000e+00 0.0000000000e+00 0.0000000000e+00
0.0000000000e+00 0.0000000000e+00 0.0000000000e+00
0.0000000000e+00 0.0000000000e+00 0.0000000000e+00
0.0000000000e+00 0.0000000000e+00 0.0000000000e+00
0.0000000000e+00 0.0000000000e+00 0.0000000000e+00
0.0000000000e+00 0.0000000000e+00 0.0000000000e+00
0.0000000000e+00 0.0000000000e+00 0.0000000000e+00
0.0000000000e+00 0.0000000000e+00 0.0000000000e+00
0.0000000000e+00 0.0000000000e+00 0.0000000000e+00
0.0000000000e+00 0.0000000000e+00 0.0000000000e+00
-9.3181075292e-07 3.5416975017e-07 -1.3882873079e-06
-4.9569963722e-07 3.5635451360e-07 -8.0040651775e-06
-1.0537227184e-06 1.5424189491e-07 1.5903407581e-06
0.0000000000e+00 0.0000000000e+00 0.0000000000e+00
0.0000000000e+00 0.0000000000e+00 0.0000000000e+00
-2.3542010262e-07 1.6310168175e-07 -2.9351931232e-06
-7.9981798130e-08 2.8910885044e-07 -3.0677930420e-06
2.5969415592e-07 9.2901155259e-07 -2.2805781916e-06
0.0000000000e+00 0.0000000000e+00 0.0000000000e+00
0.0000000000e+00 0.0000000000e+00 0.0000000000e+00
0.0000000000e+00 0.0000000000e+00 0.0000000000e+00
0.0000000000e+00 0.0000000000e+00 0.0000000000e+00
0.0000000000e+00 0.0000000000e+00 0.0000000000e+00
0.0000000000e+00 0.0000000000e+00 0.0000000000e+00
0.0000000000e+00 0.0000000000e+00 0.0000000000e+00
0.0000000000e+00 0.0000000000e+00 0.0000000000e+00
0.0000000000e+00 0.0000000000e+00 0.0000000000e+00
5.9081946914e-08 7.3732047093e-07 -2.2002413600e-06
-7.5648949898e-07 4.0160372349e-07 -1.8243577425e-06
-6.8055624110e-07 5.5174377044e-07 -1.5264729108e-06
0.0000000000e+00 0.0000000000e+00 0.0000000000e+00
0.0000000000e+00 0.0000000000e+00 0.0000000000e+00
0.0000000000e+00 0.0000000000e+00 0.0000000000e+00
0.0000000000e+00 0.0000000000e+00 0.0000000000e+00
0.0000000000e+00 0.0000000000e+00 0.0000000000e+00
0.0000000000e+00 0.0000000000e+00 0.0000000000e+00
0.0000000000e+00 0.0000000000e+00 0.0000000000e+00
0.0000000000e+00 0.0000000000e+00 0.0000000000e+00
0.0000000000e+00 0.0000000000e+00 0.0000000000e+00
0.0000000000e+00 0.0000000000e+00 0.0000000000e+00
0.0000000000e+00 0.0000000000e+00 0.0000000000e+00
0.0000000000e+00 0.0000000000e+00 0.0000000000e+00
0.0000000000e+00 0.0000000000e+00 0.0000000000e+00
0.0000000000e+00 0.0000000000e+00 0.0000000000e+00
0.0000000000e+00 0.0000000000e+00 0.0000000000e+00
0.0000000000e+00 0.0000000000e+00 0.0000000000e+00
0.0000000000e+00 0.0000000000e+00 0.0000000000e+00
0.0000000000e+00 0.0000000000e+00 0.0000000000e+00
0.0000000000e+00 0.0000000000e+00 0.0000000000e+00
0.0000000000e+00 0.0000000000e+00 0.0000000000e+00
0.0000000000e+00 0.0000000000e+00 0.0000000000e+00
0.0000000000e+00 0.0000000000e+00 0.0000000000e+00
0.0000000000e+00 0.0000000000e+00 0.0000000000e+00
0.0000000000e+00 0.0000000000e+00 0.0000000000e+00
0.0000000000e+00 0.0000000000e+00 0.0000000000e+00
0.0000000000e+00 0.0000000000e+00 0.0000000000e+00
0.0000000000e+00 0.0000000000e+00 0.0000000000e+00
0.0000000000e+00 0.0000000000e+00 0.0000000000e+00
0.0000000000e+00 0.0000000000e+00 0.0000000000e+00
0.0000000000e+00 0.0000000000e+00 0.0000000000e+00
0.0000000000e+00 0.0000000000e+00 0.0000000000e+00
0.0000000000e+00 0.0000000000e+00 0.0000000000e+00
0.0000000000e+00 0.0000000000e+00 0.0000000000e+00
0.0000000000e+00 0.0000000000e+00 0.0000000000e+00
0.0000000000e+00 0.0000000000e+00 0.0000000000e+00
0.0000000000e+00 0.0000000000e+00 0.0000000000e+00
0.0000000000e+00 0.0000000000e+00 0.0000000000e+00
0.0000000000e+00 0.0000000000e+00 0.0000000000e+00
0.0000000000e+00 0.0000000000e+00 0.0000000000e+00
0.0000000000e+00 0.0000000000e+00 0.0000000000e+00
0.0000000000e+00 0.0000000000e+00 0.0000000000e+00
0.0000000000e+00 0.0000000000e+00 0.0000000000e+00
0.0000000000e+00 0.0000000000e+00 0.0000000000e+00
0.0000000000e+00 0.0000000000e+00 0.0000000000e+00
0.0000000000e+00 0.0000000000e+00 0.0000000000e+00
0.0000000000e+00 0.0000000000e+00 0.0000000000e+00
0.0000000000e+00 0.0000000000e+00 0.0000000000e+00
0.0000000000e+00 0.0000000000e+00 0.0000000000e+00
0.0000000000e+00 0.0000000000e+00 0.0000000000e+00
0.0000000000e+00 0.0000000000e+00 0.0000000000e+00
0.0000000000e+00 0.0000000000e+00 0.0000000000e+00
0.0000000000e+00 0.0000000000e+00 0.0000000000e+00
0.0000000000e+00 0.0000000000e+00 0.0000000000e+00
0.0000000000e+00 0.0000000000e+00 0.0000000000e+00
0.0000000000e+00 0.0000000000e+00 0.0000000000e+00
0.0000000000e+00 0.0000000000e+00 0.0000000000e+00
0.0000000000e+00 0.0000000000e+00 0.0000000000e+00
0.0000000000e+00 0.0000000000e+00 0.0000000000e+00
-2.6553155866e-07 -1.5011781187e-08 4.1204174706e-07
0.0000000000e+00 0.0000000000e+00 0.0000000000e+00
0.0000000000e+00 0.0000000000e+00 0.0000000000e+00
0.0000000000e+00 0.0000000000e+00 0.0000000000e+00
0.0000000000e+00 0.0000000000e+00 0.0000000000e+00
0.0000000000e+00 0.0000000000e+00 0.0000000000e+00
0.0000000000e+00 0.0000000000e+00 0.0000000000e+00
0.0000000000e+00 0.0000000000e+00 0.0000000000e+00
0.0000000000e+00 0.0000000000e+00 0.0000000000e+00
0.0000000000e+00 0.0000000000e+00 0.0000000000e+00
0.0000000000e+00 0.0000000000e+00 0.0000000000e+00
0.0000000000e+00 0.0000000000e+00 0.0000000000e+00
0.0000000000e+00 0.0000000000e+00 0.0000000000e+00
0.0000000000e+00 0.0000000000e+00 0.0000000000e+00
0.0000000000e+00 0.0000000000e+00 0.0000000000e+00
0.0000000000e+00 0.0000000000e+00 0.0000000000e+00
0.0000000000e+00 0.0000000000e+00 0.0000000000e+00
0.0000000000e+00 0.0000000000e+00 0.0000000000e+00
0.0000000000e+00 0.0000000000e+00 0.0000000000e+00
0.0000000000e+00 0.0000000000e+00 0.0000000000e+00
0.0000000000e+00 0.0000000000e+00 0.0000000000e+00
0.0000000000e+00 0.0000000000e+00 0.0000000000e+00
0.0000000000e+00 0.0000000000e+00 0.0000000000e+00
0.0000000000e+00 0.0000000000e+00 0.0000000000e+00
0.0000000000e+00 0.0000000000e+00 0.0000000000e+00
0.0000000000e+00 0.0000000000e+00 0.0000000000e+00
0.0000000000e+00 0.0000000000e+00 0.0000000000e+00
0.0000000000e+00 0.0000000000e+00 0.0000000000e+00
0.0000000000e+00 0.0000000000e+00 0.0000000000e+00
0.0000000000e+00 0.0000000000e+00 0.0000000000e+00
0.0000000000e+00 0.0000000000e+00 0.0000000000e+00
0.0000000000e+00 0.0000000000e+00 0.0000000000e+00
0.0000000000e+00 0.0000000000e+00 0.0000000000e+00
0.0000000000e+00 0.0000000000e+00 0.0000000000e+00
0.0000000000e+00 0.0000000000e+00 0.0000000000e+00
0.0000000000e+00 0.0000000000e+00 0.0000000000e+00
0.0000000000e+00 0.0000000000e+00 0.0000000000e+00
0.0000000000e+00 0.0000000000e+00 0.0000000000e+00
0.0000000000e+00 0.0000000000e+00 0.0000000000e+00
0.0000000000e+00 0.0000000000e+00 0.0000000000e+00
-6.0549822569e-07 8.3221996886e-07 -5.9649601876e-07
8.1124859254e-07 -2.1472497349e-07 -1.7784363607e-06
-2.3051982459e-08 -1.1100542245e-07 -1.9169256477e-06
6.3199235136e-07 1.6355803042e-09 -1.4676728345e-06
3.4788049476e-08 1.7105318924e-07 -2.0761764462e-06
-4.4910051158e-07 -2.8072013292e-07 -1.0108978973e-06
1.0167077089e-07 5.6660064017e-08 -2.1306836300e-06
-8.6814530894e-08 -5.4689194915e-08 -1.8332676354e-06
2.0910405766e-07 8.1379136156e-07 -8.4181402741e-07
-7.6153162582e-07 1.2011392053e-06 -5.8213711054e-06
1.9757087155e-07 6.7675159538e-07 -1.5334766549e-06
0.0000000000e+00 0.0000000000e+00 0.0000000000e+00
0.0000000000e+00 0.0000000000e+00 0.0000000000e+00
0.0000000000e+00 0.0000000000e+00 0.0000000000e+00
0.0000000000e+00 0.0000000000e+00 0.0000000000e+00
0.0000000000e+00 0.0000000000e+00 0.0000000000e+00
0.0000000000e+00 0.0000000000e+00 0.0000000000e+00
0.0000000000e+00 0.0000000000e+00 0.0000000000e+00
0.0000000000e+00 0.0000000000e+00 0.0000000000e+00
0.0000000000e+00 0.0000000000e+00 0.0000000000e+00
0.0000000000e+00 0.0000000000e+00 0.0000000000e+00
0.0000000000e+00 0.0000000000e+00 0.0000000000e+00
0.0000000000e+00 0.0000000000e+00 0.0000000000e+00
0.0000000000e+00 0.0000000000e+00 0.0000000000e+00
0.0000000000e+00 0.0000000000e+00 0.0000000000e+00
0.0000000000e+00 0.0000000000e+00 0.0000000000e+00
0.0000000000e+00 0.0000000000e+00 0.0000000000e+00
0.0000000000e+00 0.0000000000e+00 0.0000000000e+00
0.0000000000e+00 0.0000000000e+00 0.0000000000e+00
0.0000000000e+00 0.0000000000e+00 0.0000000000e+00
0.0000000000e+00 0.0000000000e+00 0.0000000000e+00
0.0000000000e+00 0.0000000000e+00 0.0000000000e+00
0.0000000000e+00 0.0000000000e+00 0.0000000000e+00
0.0000000000e+00 0.0000000000e+00 0.0000000000e+00
-1.3152108991e-06 7.5888141586e-07 1.1530648682e-06
-6.1876678808e-07 5.8629189977e-08 6.0547457858e-07
-1.5565905147e-06 9.4838248361e-07 1.7944977890e-06
-4.3987599249e-07 -1.3912405544e-07 1.3213150703e-07
-3.5892781827e-07 1.7781083662e-07 1.6926288881e-07
-9.3408160797e-07 -1.7246589272e-07 -1.7326132226e-07
-5.9907277957e-07 4.4179290222e-08 -1.4501259710e-07
-9.1336622184e-07 3.5133749217e-07 -2.8040719546e-07
-6.6473919561e-07 1.4529748275e-07 4.1061993066e-07
-5.2640289586e-07 2.8296878577e-07 -1.7996583421e-07
-8.0307430004e-07 3.1359778734e-07 -6.9012431606e-07
-8.4940433630e-07 2.5638406844e-07 9.3782970046e-07
-5.3556571746e-07 2.5932545072e-07 -1.0163438446e-07
-6.6049935616e-07 7.9550136676e-08 5.6844234768e-07
0.0000000000e+00 0.0000000000e+00 0.0000000000e+00
0.0000000000e+00 0.0000000000e+00 0.0000000000e+00
0.0000000000e+00 0.0000000000e+00 0.0000000000e+00
0.0000000000e+00 0.0000000000e+00 0.0000000000e+00
0.0000000000e+00 0.0000000000e+00 0.0000000000e+00
0.0000000000e+00 0.0000000000e+00 0.0000000000e+00
0.0000000000e+00 0.0000000000e+00 0.0000000000e+00
0.0000000000e+00 0.0000000000e+00 0.0000000000e+00
0.0000000000e+00 0.0000000000e+00 0.0000000000e+00
0.0000000000e+00 0.0000000000e+00 0.0000000000e+00
0.0000000000e+00 0.0000000000e+00 0.0000000000e+00
0.0000000000e+00 0.0000000000e+00 0.0000000000e+00
8.4537365490e-07 2.9597467277e-07 -6.0789041321e-07
0.0000000000e+00 0.0000000000e+00 0.0000000000e+00
0.0000000000e+00 0.0000000000e+00 0.0000000000e+00
0.0000000000e+00 0.0000000000e+00 0.0000000000e+00
0.0000000000e+00 0.0000000000e+00 0.0000000000e+00
0.0000000000e+00 0.0000000000e+00 0.0000000000e+00
-3.5681901030e-07 -1.0949983356e-06 1.5079531264e-06
-1.0708736443e-06 -1.6454203868e-06 -3.7449814916e-07
-2.8914183139e-06 1.4566858155e-06 1.7037015926e-06
0.0000000000e+00 0.0000000000e+00 0.0000000000e+00
0.0000000000e+00 0.0000000000e+00 0.0000000000e+00
0.0000000000e+00 0.0000000000e+00 0.0000000000e+00
0.0000000000e+00 0.0000000000e+00 0.0000000000e+00
0.0000000000e+00 0.0000000000e+00 0.0000000000e+00
0.0000000000e+00 0.0000000000e+00 0.0000000000e+00
0.0000000000e+00 0.0000000000e+00 0.0000000000e+00
0.0000000000e+00 0.0000000000e+00 0.0000000000e+00
0.0000000000e+00 0.0000000000e+00 0.0000000000e+00
0.0000000000e+00 0.0000000000e+00 0.0000000000e+00
0.0000000000e+00 0.0000000000e+00 0.0000000000e+00
0.0000000000e+00 0.0000000000e+00 0.0000000000e+00
0.0000000000e+00 0.0000000000e+00 0.0000000000e+00
0.0000000000e+00 0.0000000000e+00 0.0000000000e+00
0.0000000000e+00 0.0000000000e+00 0.0000000000e+00
0.0000000000e+00 0.0000000000e+00 0.0000000000e+00
0.0000000000e+00 0.0000000000e+00 0.0000000000e+00
0.0000000000e+00 0.0000000000e+00 0.0000000000e+00
0.0000000000e+00 0.0000000000e+00 0.0000000000e+00
0.0000000000e+00 0.0000000000e+00 0.0000000000e+00
0.0000000000e+00 0.0000000000e+00 0.0000000000e+00
0.0000000000e+00 0.0000000000e+00 0.0000000000e+00
0.0000000000e+00 0.0000000000e+00 0.0000000000e+00
0.0000000000e+00 0.0000000000e+00 0.0000000000e+00
0.0000000000e+00 0.0000000000e+00 0.0000000000e+00
0.0000000000e+00 0.0000000000e+00 0.0000000000e+00
0.0000000000e+00 0.0000000000e+00 0.0000000000e+00
0.0000000000e+00 0.0000000000e+00 0.0000000000e+00
0.0000000000e+00 0.0000000000e+00 0.0000000000e+00
0.0000000000e+00 0.0000000000e+00 0.0000000000e+00
0.0000000000e+00 0.0000000000e+00 0.0000000000e+00
0.0000000000e+00 0.0000000000e+00 0.0000000000e+00
0.0000000000e+00 0.0000000000e+00 0.0000000000e+00
0.0000000000e+00 0.0000000000e+00 0.0000000000e+00
0.0000000000e+00 0.0000000000e+00 0.0000000000e+00
0.0000000000e+00 0.0000000000e+00 0.0000000000e+00
0.0000000000e+00 0.0000000000e+00 0.0000000000e+00
0.0000000000e+00 0.0000000000e+00 0.0000000000e+00
0.0000000000e+00 0.0000000000e+00 0.0000000000e+00
0.0000000000e+00 0.0000000000e+00 0.0000000000e+00
0.0000000000e+00 0.0000000000e+00 0.0000000000e+00
0.0000000000e+00 0.0000000000e+00 0.0000000000e+00
0.0000000000e+00 0.0000000000e+00 0.0000000000e+00
0.0000000000e+00 0.0000000000e+00 0.0000000000e+00
0.0000000000e+00 0.0000000000e+00 0.0000000000e+00
0.0000000000e+00 0.0000000000e+00 0.0000000000e+00
0.0000000000e+00 0.0000000000e+00 0.0000000000e+00
0.0000000000e+00 0.0000000000e+00 0.0000000000e+00
0.0000000000e+00 0.0000000000e+00 0.0000000000e+00
0.0000000000e+00 0.0000000000e+00 0.0000000000e+00
0.0000000000e+00 0.0000000000e+00 0.0000000000e+00
0.0000000000e+00 0.0000000000e+00 0.0000000000e+00
0.0000000000e+00 0.0000000000e+00 0.0000000000e+00
0.0000000000e+00 0.0000000000e+00 0.0000000000e+00
0.0000000000e+00 0.0000000000e+00 0.0000000000e+00
0.0000000000e+00 0.0000000000e+00 0.0000000000e+00
0.0000000000e+00 0.0000000000e+00 0.0000000000e+00
0.0000000000e+00 0.0000000000e+00 0.0000000000e+00
0.0000000000e+00 0.0000000000e+00 0.0000000000e+00
0.0000000000e+00 0.0000000000e+00 0.0000000000e+00
0.0000000000e+00 0.0000000000e+00 0.0000000000e+00
0.0000000000e+00 0.0000000000e+00 0.0000000000e+00
0.0000000000e+00 0.0000000000e+00 0.0000000000e+00
0.0000000000e+00 0.0000000000e+00 0.0000000000e+00
0.0000000000e+00 0.0000000000e+00 0.0000000000e+00
0.0000000000e+00 0.0000000000e+00 0.0000000000e+00
0.0000000000e+00 0.0000000000e+00 0.0000000000e+00
0.0000000000e+00 0.0000000000e+00 0.0000000000e+00
0.0000000000e+00 0.0000000000e+00 0.0000000000e+00
0.0000000000e+00 0.0000000000e+00 0.0000000000e+00
0.0000000000e+00 0.0000000000e+00 0.0000000000e+00
-2.3636476455e-07 -2.9669753783e-07 -2.1422820938e-06
-6.7750016448e-07 -4.9449811467e-07 -1.7621334390e-06
-1.4858891336e-07 -8.5010794888e-08 -3.3620998716e-06
-7.3551693916e-07 -5.3199700572e-07 -1.6561264290e-06
-1.0987243091e-07 -5.3493126558e-07 -1.6669741403e-06
3.7217862026e-07 -3.6019321574e-07 -1.8633355892e-06
0.0000000000e+00 0.0000000000e+00 0.0000000000e+00
0.0000000000e+00 0.0000000000e+00 0.0000000000e+00
0.0000000000e+00 0.0000000000e+00 0.0000000000e+00
0.0000000000e+00 0.0000000000e+00 0.0000000000e+00
0.0000000000e+00 0.0000000000e+00 0.0000000000e+00
0.0000000000e+00 0.0000000000e+00 0.0000000000e+00
0.0000000000e+00 0.0000000000e+00 0.0000000000e+00
0.0000000000e+00 0.0000000000e+00 0.0000000000e+00
0.0000000000e+00 0.0000000000e+00 0.0000000000e+00
0.0000000000e+00 0.0000000000e+00 0.0000000000e+00
0.0000000000e+00 0.0000000000e+00 0.0000000000e+00
0.0000000000e+00 0.0000000000e+00 0.0000000000e+00
0.0000000000e+00 0.0000000000e+00 0.0000000000e+00
0.0000000000e+00 0.0000000000e+00 0.0000000000e+00
0.0000000000e+00 0.0000000000e+00 0.0000000000e+00
0.0000000000e+00 0.0000000000e+00 0.0000000000e+00
0.0000000000e+00 0.0000000000e+00 0.0000000000e+00
0.0000000000e+00 0.0000000000e+00 0.0000000000e+00
0.0000000000e+00 0.0000000000e+00 0.0000000000e+00
-3.1262473495e-07 -1.6052492144e-07 -8.9419892860e-07
0.0000000000e+00 0.0000000000e+00 0.0000000000e+00
0.0000000000e+00 0.0000000000e+00 0.0000000000e+00