# vtk DataFile Version 3.0
VEM 3D Result
ASCII
DATASET UNSTRUCTURED_GRID

POINTS 1853 double
200.2000000000 82.1957235755 50.0500000000
200.2000000000 -0.2000000000 50.0500000000
-0.2000000000 -0.2000000000 50.0500000000
-0.2000000000 50.4100929054 -0.0500000000
-0.2000000000 159.7190346180 -0.0500000000
-0.2000000000 159.8782278745 -0.0500000000
-0.2000000000 200.2000000000 -0.0500000000
-0.2000000000 91.3211194564 -0.0500000000
111.6897698927 113.2262066600 -0.0500000000
42.0792968750 59.3958875868 -0.0500000000
73.3692081604 72.4333506224 -0.0500000000
-0.2000000000 159.7661297036 -0.0500000000
-0.2000000000 163.4442937271 -0.0500000000
-0.2000000000 177.4827765345 -0.0500000000
-0.2000000000 200.2000000000 40.7927845109
-0.2000000000 200.2000000000 50.0500000000
200.2000000000 168.0006993820 50.0500000000
150.2079160901 74.5440827102 50.0500000000
121.6676070615 200.2000000000 50.0500000000
122.1639261313 200.2000000000 50.0500000000
104.2121035204 200.2000000000 50.0500000000
142.6008542813 79.0112303440 50.0500000000
200.2000000000 83.6435191307 50.0500000000
195.2415023969 85.4533174229 50.0500000000
200.2000000000 66.5140200969 50.0500000000
200.2000000000 46.2313163992 41.3288920784
200.2000000000 50.2166629081 50.0500000000
200.2000000000 31.0004882813 47.8692280162
77.9684720675 200.2000000000 50.0500000000
30.7886442979 147.8388447117 50.0500000000
-0.2000000000 80.1388719490 -0.0500000000
-0.2000000000 84.2518367673 -0.0500000000
-0.2000000000 -0.2000000000 18.1867529907
-0.2000000000 169.6524339934 19.4653078589
-0.2000000000 94.6398888357 -0.0500000000
-0.2000000000 85.9748215841 2.3306938896
-0.2000000000 53.4696990920 26.6414038327
-0.2000000000 101.1742413211 25.4571497177
-0.2000000000 199.5810163351 -0.0500000000
-0.2000000000 168.0006993820 19.0388555448
-0.2000000000 125.2348896076 5.0994362472
86.8759109172 149.1219832364 -0.0500000000
78.0457469456 55.5978109959 -0.0500000000
-0.2000000000 90.1439439141 -0.0500000000
-0.2000000000 106.3932125796 -0.0500000000
-0.2000000000 134.9945192917 -0.0500000000
-0.2000000000 88.8327597882 -0.0500000000
-0.2000000000 140.3207270726 -0.0500000000
-0.2000000000 169.6174177751 -0.0500000000
-0.2000000000 152.9287495820 -0.0500000000
-0.2000000000 200.2000000000 48.2457962836
-0.2000000000 200.2000000000 34.0017412843
-0.2000000000 200.2000000000 25.2046602615
46.8919559627 -0.2000000000 34.0196188299
47.5064052179 -0.2000000000 34.1881055754
48.3369349981 -0.2000000000 33.4884953304
200.2000000000 -0.2000000000 35.7583059660
200.2000000000 -0.2000000000 29.9833521135
55.9313692959 144.7247733306 -0.0500000000
28.9616943025 149.5595766841 -0.0500000000
200.2000000000 -0.2000000000 28.8095515157
200.2000000000 59.3958875868 50.0500000000
200.2000000000 50.5515376662 50.0500000000
200.2000000000 70.9290342529 50.0500000000
200.2000000000 95.2026800737 50.0500000000
200.2000000000 88.6896950954 50.0500000000
200.2000000000 50.9268751181 50.0500000000
200.2000000000 46.9979106731 50.0500000000
200.2000000000 65.0505332060 50.0500000000
200.2000000000 45.5152679343 50.0500000000
200.2000000000 63.5350382748 50.0500000000
200.2000000000 63.1655409670 50.0500000000
200.2000000000 200.2000000000 50.0500000000
200.2000000000 155.5335144928 50.0500000000
200.2000000000 138.1407304725 34.0196188299
200.2000000000 106.3932125796 50.0500000000
200.2000000000 80.2547702224 27.2915432583
200.2000000000 119.6325193386 25.9124733808
200.2000000000 84.3399664473 31.9321049794
200.2000000000 102.4580319470 35.8074800332
200.2000000000 90.1439439141 43.5037850537
200.2000000000 133.7708902905 22.2540293566
141.6999658470 79.8565573770 50.0500000000
159.7684829591 85.9748215841 50.0500000000
156.2390283009 125.2348896076 50.0500000000
95.0406789976 138.4569104414 50.0500000000
152.8214963951 81.8476450644 50.0500000000
144.0538249865 79.6077290111 50.0500000000
160.3734137056 83.7769670051 50.0500000000
177.7688436588 94.6398888357 50.0500000000
180.1042739628 91.3211194564 50.0500000000
103.9213835667 199.5810163351 50.0500000000
70.1296477080 142.0943619128 50.0500000000
67.9272471313 139.4874387813 50.0500000000
96.4901376147 200.2000000000 50.0500000000
73.9043563156 200.2000000000 50.0500000000
69.2372152853 111.3147011104 50.0500000000
92.6686497804 102.7680554846 50.0500000000
96.1441643775 106.9226936236 50.0500000000
48.9675867174 106.3417177040 50.0500000000
101.6072713782 88.4126530328 50.0500000000
174.4057509824 78.3268147521 50.0500000000
95.0413621982 88.6972108946 50.0500000000
131.7775768590 90.6370989262 50.0500000000
180.2566181253 84.8870371392 50.0500000000
180.2349521055 84.8897031889 50.0500000000
97.6176812334 105.6343513459 50.0500000000
139.1404742255 116.7581576943 50.0500000000
138.9156061747 120.6999623494 50.0500000000
113.0795502145 200.2000000000 50.0500000000
93.9639836109 200.2000000000 50.0500000000
87.9198627408 164.3540761263 50.0500000000
104.8792538797 153.6032413108 50.0500000000
100.7540143381 144.9463346865 50.0500000000
169.8235693176 146.2355252552 50.0500000000
155.0717343290 135.5404448885 50.0500000000
121.3755013110 132.6418441988 50.0500000000
116.2361663703 132.1997508706 50.0500000000
157.4422867496 106.6338870468 50.0500000000
129.7546315243 133.3626295935 50.0500000000
122.7658149316 102.2852186605 50.0500000000
116.8960819342 106.7803379816 50.0500000000
61.0362793852 46.2313163992 50.0500000000
-0.2000000000 91.0992236305 50.0500000000
-0.2000000000 90.1439439141 50.0500000000
32.4296405591 147.5992302133 50.0500000000
50.6554288494 180.3184385439 50.0500000000
53.9154971715 149.4436738468 50.0500000000
21.5369698661 200.2000000000 50.0500000000
28.9616943025 149.5595766841 50.0500000000
55.6560724097 144.2077600759 50.0500000000
55.9313692959 144.7247733306 50.0500000000
-0.2000000000 171.7901370222 50.0500000000
-0.2000000000 140.6223658562 50.0500000000
185.2525448880 4.3092985964 50.0500000000
161.3508653044 -0.2000000000 50.0500000000
151.6952619892 43.0809963817 50.0500000000
33.3659351145 25.6464694656 50.0500000000
-0.2000000000 -0.2000000000 14.7414220101
-0.2000000000 -0.2000000000 -0.0500000000
82.7845720002 -0.2000000000 -0.0500000000
-0.2000000000 128.4058501362 45.2749528450
-0.2000000000 116.7581576943 13.3389100888
-0.2000000000 120.6999623494 13.5528240893
-0.2000000000 101.9403655418 27.2034622796
-0.2000000000 128.7725955717 23.0422937208
200.2000000000 200.2000000000 17.0679516788
180.1042739628 -0.2000000000 -0.0500000000
47.4218750000 55.6857638889 -0.0500000000
73.9304812834 70.4127673797 -0.0500000000
20.5037264644 40.7312369247 -0.0500000000
93.7572007830 53.0959871365 -0.0500000000
-0.2000000000 200.2000000000 10.4481408401
200.2000000000 200.2000000000 13.9363033141
-0.2000000000 94.4025219298 14.4347245066
50.6554288494 180.3184385439 -0.0500000000
21.5369698661 200.2000000000 -0.0500000000
120.9672541204 200.2000000000 50.0500000000
22.9831922605 200.2000000000 50.0500000000
18.3523482635 200.2000000000 50.0500000000
71.9497588970 200.2000000000 50.0500000000
65.1051434010 200.2000000000 50.0500000000
67.9770535891 200.2000000000 50.0500000000
81.6902068832 200.2000000000 50.0500000000
90.8552427214 200.2000000000 50.0500000000
79.7244399311 -0.2000000000 50.0500000000
74.0614898990 -0.2000000000 25.6013553504
2.4436111111 -0.2000000000 50.0500000000
99.9530486428 -0.2000000000 20.0348772092
78.0457469456 -0.2000000000 38.6799810834
91.3121738421 -0.2000000000 36.3588201494
93.7572007830 -0.2000000000 38.0779797172
55.0649732653 -0.2000000000 29.8948992175
57.9711644592 -0.2000000000 30.6408017729
53.9154971715 -0.2000000000 29.2185120213
74.1595480669 -0.2000000000 23.9466237673
76.5497159091 -0.2000000000 24.8515551018
84.6969696970 -0.2000000000 34.3991181345
200.2000000000 -0.2000000000 19.4653078589
177.7688436588 -0.2000000000 -0.0500000000
159.7684829591 -0.2000000000 2.3306938896
200.2000000000 -0.2000000000 25.4571497177
200.2000000000 77.1059798984 26.8556074663
200.2000000000 44.2186881936 23.9371145685
200.2000000000 75.9108502288 27.0678614637
200.2000000000 79.2090324139 27.1200919671
200.2000000000 200.2000000000 3.0433238636
200.2000000000 200.2000000000 2.0207686909
200.2000000000 200.2000000000 3.8212750112
200.2000000000 122.8390563241 3.0433238636
200.2000000000 112.2570668223 -0.0500000000
200.2000000000 49.5191758116 35.3079995294
200.2000000000 40.2143926433 25.2271050811
200.2000000000 38.3983444940 24.3048931303
200.2000000000 48.4589123007 38.1553868878
-0.2000000000 128.4986742424 -0.0500000000
-0.2000000000 125.3465181860 -0.0500000000
-0.2000000000 91.8801619281 -0.0500000000
-0.2000000000 76.3810010037 -0.0500000000
-0.2000000000 79.2090324139 -0.0500000000
-0.2000000000 75.9108502288 -0.0500000000
32.4296405591 147.5992302133 -0.0500000000
55.6560724097 144.2077600759 -0.0500000000
30.7886442979 147.8388447117 -0.0500000000
20.3236166008 122.8390563241 -0.0500000000
45.2927215190 94.7488132911 -0.0500000000
69.7957256461 142.1431204440 0.0000000000
152.8214963951 -0.2000000000 4.1271211693
160.3734137056 -0.2000000000 -0.0500000000
144.0538249865 -0.2000000000 6.7857715295
186.0510446438 -0.0000000000 21.4521658558
159.2667177566 -0.0000000000 11.1755404355
200.0000000000 200.0000000000 50.0000000000
200.2000000000 176.9817935521 50.0500000000
200.2000000000 196.0498094609 50.0500000000
200.2000000000 169.6524339934 50.0500000000
200.2000000000 181.1619572298 50.0500000000
159.5500211506 111.9384422616 50.0500000000
170.5557719547 142.9812913126 50.0500000000
166.2983851436 136.5061782919 50.0500000000
200.2000000000 101.1742413211 50.0500000000
178.7088972295 101.9403655418 50.0500000000
170.6377843366 128.7725955717 50.0500000000
152.9002662835 169.9703160920 50.0500000000
159.5500211506 148.9904621756 50.0500000000
152.4277245451 148.7059378630 50.0500000000
153.3988909022 135.3965443787 50.0500000000
200.2000000000 66.4970350606 50.0500000000
200.2000000000 67.3319505931 50.0500000000
200.2000000000 67.1643490458 50.0500000000
[...]
POINT_DATA 1853
VECTORS displacement double
0.0000000000e+00 0.0000000000e+00 0.0000000000e+00
0.0000000000e+00 0.0000000000e+00 0.0000000000e+00
0.0000000000e+00 0.0000000000e+00 0.0000000000e+00
0.0000000000e+00 0.0000000000e+00 0.0000000000e+00
0.0000000000e+00 0.0000000000e+00 0.0000000000e+00
0.0000000000e+00 0.0000000000e+00 0.0000000000e+00
0.0000000000e+00 0.0000000000e+00 0.0000000000e+00
0.0000000000e+00 0.0000000000e+00 0.0000000000e+00
0.0000000000e+00 0.0000000000e+00 0.0000000000e+00
0.0000000000e+00 0.0000000000e+00 0.0000000000e+00
0.0000000000e+00 0.0000000000e+00 0.0000000000e+00
0.0000000000e+00 0.0000000000e+00 0.0000000000e+00
0.0000000000e+00 0.0000000000e+00 0.0000000000e+00
0.0000000000e+00 0.0000000000e+00 0.0000000000e+00
0.0000000000e+00 0.0000000000e+00 0.0000000000e+00
0.0000000000e+00 0.0000000000e+00 0.0000000000e+00
0.0000000000e+00 0.0000000000e+00 0.0000000000e+00
0.0000000000e+00 0.0000000000e+00 0.0000000000e+00
0.0000000000e+00 0.0000000000e+00 0.0000000000e+00
0.0000000000e+00 0.0000000000e+00 0.0000000000e+00
0.0000000000e+00 0.0000000000e+00 0.0000000000e+00
0.0000000000e+00 0.0000000000e+00 0.0000000000e+00
0.0000000000e+00 0.0000000000e+00 0.0000000000e+00
0.0000000000e+00 0.0000000000e+00 0.0000000000e+00
0.0000000000e+00 0.0000000000e+00 0.0000000000e+00
0.0000000000e+00 0.0000000000e+00 0.0000000000e+00
0.0000000000e+00 0.0000000000e+00 0.0000000000e+00
0.0000000000e+00 0.0000000000e+00 0.0000000000e+00
0.0000000000e+00 0.0000000000e+00 0.0000000000e+00
0.0000000000e+00 0.0000000000e+00 0.0000000000e+00
0.0000000000e+00 0.0000000000e+00 0.0000000000e+00
0.0000000000e+00 0.0000000000e+00 0.0000000000e+00
0.0000000000e+00 0.0000000000e+00 0.0000000000e+00
0.0000000000e+00 0.0000000000e+00 0.0000000000e+00
0.0000000000e+00 0.0000000000e+00 0.0000000000e+00
0.0000000000e+00 0.0000000000e+00 0.0000000000e+00
0.0000000000e+00 0.0000000000e+00 0.0000000000e+00
0.0000000000e+00 0.0000000000e+00 0.0000000000e+00
0.0000000000e+00 0.0000000000e+00 0.0000000000e+00
0.0000000000e+00 0.0000000000e+00 0.0000000000e+00
0.0000000000e+00 0.0000000000e+00 0.0000000000e+00
0.0000000000e+00 0.0000000000e+00 0.0000000000e+00
0.0000000000e+00 0.0000000000e+00 0.0000000000e+00
0.0000000000e+00 0.0000000000e+00 0.0000000000e+00
0.0000000000e+00 0.0000000000e+00 0.0000000000e+00
0.0000000000e+00 0.0000000000e+00 0.0000000000e+00
0.0000000000e+00 0.0000000000e+00 0.0000000000e+00
0.0000000000e+00 0.0000000000e+00 0.0000000000e+00
0.0000000000e+00 0.0000000000e+00 0.0000000000e+00
0.0000000000e+00 0.0000000000e+00 0.0000000000e+00
0.0000000000e+00 0.0000000000e+00 0.0000000000e+00
0.0000000000e+00 0.0000000000e+00 0.0000000000e+00
0.0000000000e+00 0.0000000000e+00 0.0000000000e+00
0.0000000000e+00 0.0000000000e+00 0.0000000000e+00
0.0000000000e+00 0.0000000000e+00 0.0000000000e+00
0.0000000000e+00 0.0000000000e+00 0.0000000000e+00
0.0000000000e+00 0.0000000000e+00 0.0000000000e+00
0.0000000000e+00 0.0000000000e+00 0.0000000000e+00
0.0000000000e+00 0.0000000000e+00 0.0000000000e+00
0.0000000000e+00 0.0000000000e+00 0.0000000000e+00
0.0000000000e+00 0.0000000000e+00 0.0000000000e+00
0.0000000000e+00 0.0000000000e+00 0.0000000000e+00
0.0000000000e+00 0.0000000000e+00 0.0000000000e+00
0.0000000000e+00 0.0000000000e+00 0.0000000000e+00
0.0000000000e+00 0.0000000000e+00 0.0000000000e+00
0.0000000000e+00 0.0000000000e+00 0.0000000000e+00
0.0000000000e+00 0.0000000000e+00 0.0000000000e+00
0.0000000000e+00 0.0000000000e+00 0.0000000000e+00
0.0000000000e+00 0.0000000000e+00 0.0000000000e+00
0.0000000000e+00 0.0000000000e+00 0.0000000000e+00
0.0000000000e+00 0.0000000000e+00 0.0000000000e+00
0.0000000000e+00 0.0000000000e+00 0.0000000000e+00
0.0000000000e+00 0.0000000000e+00 0.0000000000e+00
0.0000000000e+00 0.0000000000e+00 0.0000000000e+00
0.0000000000e+00 0.0000000000e+00 0.0000000000e+00
0.0000000000e+00 0.0000000000e+00 0.0000000000e+00
0.0000000000e+00 0.0000000000e+00 0.0000000000e+00
0.0000000000e+00 0.0000000000e+00 0.0000000000e+00
0.0000000000e+00 0.0000000000e+00 0.0000000000e+00
0.0000000000e+00 0.0000000000e+00 0.0000000000e+00
0.0000000000e+00 0.0000000000e+00 0.0000000000e+00
0.0000000000e+00 0.0000000000e+00 0.0000000000e+00
0.0000000000e+00 0.0000000000e+00 0.0000000000e+00
0.0000000000e+00 0.0000000000e+00 0.0000000000e+00
0.0000000000e+00 0.0000000000e+00 0.0000000000e+00
0.0000000000e+00 0.0000000000e+00 0.0000000000e+00
0.0000000000e+00 0.0000000000e+00 0.0000000000e+00
0.0000000000e+00 0.0000000000e+00 0.0000000000e+00
0.0000000000e+00 0.0000000000e+00 0.0000000000e+00
0.0000000000e+00 0.0000000000e+00 0.0000000000e+00
0.0000000000e+00 0.0000000000e+00 0.0000000000e+00
0.0000000000e+00 0.0000000000e+00 0.0000000000e+00
0.0000000000e+00 0.0000000000e+00 0.0000000000e+00
0.0000000000e+00 0.0000000000e+00 0.0000000000e+00
0.0000000000e+00 0.0000000000e+00 0.0000000000e+00
0.0000000000e+00 0.0000000000e+00 0.0000000000e+00
0.0000000000e+00 0.0000000000e+00 0.0000000000e+00
0.0000000000e+00 0.0000000000e+00 0.0000000000e+00
0.0000000000e+00 0.0000000000e+00 0.0000000000e+00
0.0000000000e+00 0.0000000000e+00 0.0000000000e+00
0.0000000000e+00 0.0000000000e+00 0.0000000000e+00
0.0000000000e+00 0.0000000000e+00 0.0000000000e+00
0.0000000000e+00 0.0000000000e+00 0.0000000000e+00
0.0000000000e+00 0.0000000000e+00 0.0000000000e+00
0.0000000000e+00 0.0000000000e+00 0.0000000000e+00
0.0000000000e+00 0.0000000000e+00 0.0000000000e+00
0.0000000000e+00 0.0000000000e+00 0.0000000000e+00
0.0000000000e+00 0.0000000000e+00 0.0000000000e+00
0.0000000000e+00 0.0000000000e+00 0.0000000000e+00
0.0000000000e+00 0.0000000000e+00 0.0000000000e+00
0.0000000000e+00 0.0000000000e+00 0.0000000000e+00
0.0000000000e+00 0.0000000000e+00 0.0000000000e+00
0.0000000000e+00 0.0000000000e+00 0.0000000000e+00
0.0000000000e+00 0.0000000000e+00 0.0000000000e+00
0.0000000000e+00 0.0000000000e+00 0.0000000000e+00
0.0000000000e+00 0.0000000000e+00 0.0000000000e+00
0.0000000000e+00 0.0000000000e+00 0.0000000000e+00
0.0000000000e+00 0.0000000000e+00 0.0000000000e+00
0.0000000000e+00 0.0000000000e+00 0.0000000000e+00
0.0000000000e+00 0.0000000000e+00 0.0000000000e+00
0.0000000000e+00 0.0000000000e+00 0.0000000000e+00
0.0000000000e+00 0.0000000000e+00 0.0000000000e+00
0.0000000000e+00 0.0000000000e+00 0.0000000000e+00
0.0000000000e+00 0.0000000000e+00 0.0000000000e+00
0.0000000000e+00 0.0000000000e+00 0.0000000000e+00
0.0000000000e+00 0.0000000000e+00 0.0000000000e+00
0.0000000000e+00 0.0000000000e+00 0.0000000000e+00
0.0000000000e+00 0.0000000000e+00 0.0000000000e+00
0.0000000000e+00 0.0000000000e+00 0.0000000000e+00
0.0000000000e+00 0.0000000000e+00 0.0000000000e+00
0.0000000000e+00 0.0000000000e+00 0.0000000000e+00
0.0000000000e+00 0.0000000000e+00 0.0000000000e+00
0.0000000000e+00 0.0000000000e+00 0.0000000000e+00
0.0000000000e+00 0.0000000000e+00 0.0000000000e+00
0.0000000000e+00 0.0000000000e+00 0.0000000000e+00
0.0000000000e+00 0.0000000000e+00 0.0000000000e+00
0.0000000000e+00 0.0000000000e+00 0.0000000000e+00
0.0000000000e+00 0.0000000000e+00 0.0000000000e+00
0.0000000000e+00 0.0000000000e+00 0.0000000000e+00
0.0000000000e+00 0.0000000000e+00 0.0000000000e+00
0.0000000000e+00 0.0000000000e+00 0.0000000000e+00
0.0000000000e+00 0.0000000000e+00 0.0000000000e+00
0.0000000000e+00 0.0000000000e+00 0.0000000000e+00
0.0000000000e+00 0.0000000000e+00 0.0000000000e+00
0.0000000000e+00 0.0000000000e+00 0.0000000000e+00
0.0000000000e+00 0.0000000000e+00 0.0000000000e+00
0.0000000000e+00 0.0000000000e+00 0.0000000000e+00
0.0000000000e+00 0.0000000000e+00 0.0000000000e+00
0.0000000000e+00 0.0000000000e+00 0.0000000000e+00
0.0000000000e+00 0.0000000000e+00 0.0000000000e+00
0.0000000000e+00 0.0000000000e+00 0.0000000000e+00
0.0000000000e+00 0.0000000000e+00 0.0000000000e+00
0.0000000000e+00 0.0000000000e+00 0.0000000000e+00
0.0000000000e+00 0.0000000000e+00 0.0000000000e+00
0.0000000000e+00 0.0000000000e+00 0.0000000000e+00
0.0000000000e+00 0.0000000000e+00 0.0000000000e+00
0.0000000000e+00 0.0000000000e+00 0.0000000000e+00
0.0000000000e+00 0.0000000000e+00 0.0000000000e+00
0.0000000000e+00 0.0000000000e+00 0.0000000000e+00
0.0000000000e+00 0.0000000000e+00 0.0000000000e+00
0.0000000000e+00 0.0000000000e+00 0.0000000000e+00
0.0000000000e+00 0.0000000000e+00 0.0000000000e+00
0.0000000000e+00 0.0000000000e+00 0.0000000000e+00
0.0000000000e+00 0.0000000000e+00 0.0000000000e+00
0.0000000000e+00 0.0000000000e+00 0.0000000000e+00
0.0000000000e+00 0.0000000000e+00 0.0000000000e+00
0.0000000000e+00 0.0000000000e+00 0.0000000000e+00
0.0000000000e+00 0.0000000000e+00 0.0000000000e+00
0.0000000000e+00 0.0000000000e+00 0.0000000000e+00
0.0000000000e+00 0.0000000000e+00 0.0000000000e+00
0.0000000000e+00 0.0000000000e+00 0.0000000000e+00
0.0000000000e+00 0.0000000000e+00 0.0000000000e+00
0.0000000000e+00 0.0000000000e+00 0.0000000000e+00
0.0000000000e+00 0.0000000000e+00 0.0000000000e+00
0.0000000000e+00 0.0000000000e+00 0.0000000000e+00
0.0000000000e+00 0.0000000000e+00 0.0000000000e+00
0.0000000000e+00 0.0000000000e+00 0.0000000000e+00
0.0000000000e+00 0.0000000000e+00 0.0000000000e+00
0.0000000000e+00 0.0000000000e+00 0.0000000000e+00
0.0000000000e+00 0.0000000000e+00 0.0000000000e+00
0.0000000000e+00 0.0000000000e+00 0.0000000000e+00
0.0000000000e+00 0.0000000000e+00 0.0000000000e+00
0.0000000000e+00 0.0000000000e+00 0.0000000000e+00
0.0000000000e+00 0.0000000000e+00 0.0000000000e+00
0.0000000000e+00 0.0000000000e+00 0.0000000000e+00
0.0000000000e+00 0.0000000000e+00 0.0000000000e+00
0.0000000000e+00 0.0000000000e+00 0.0000000000e+00
0.0000000000e+00 0.0000000000e+00 0.0000000000e+00
0.0000000000e+00 0.0000000000e+00 0.0000000000e+00
0.0000000000e+00 0.0000000000e+00 0.0000000000e+00
0.0000000000e+00 0.0000000000e+00 0.0000000000e+00
0.0000000000e+00 0.0000000000e+00 0.0000000000e+00
0.0000000000e+00 0.0000000000e+00 0.0000000000e+00
0.0000000000e+00 0.0000000000e+00 0.0000000000e+00
0.0000000000e+00 0.0000000000e+00 0.0000000000e+00
0.0000000000e+00 0.0000000000e+00 0.0000000000e+00
0.0000000000e+00 0.0000000000e+00 0.0000000000e+00
0.0000000000e+00 0.0000000000e+00 0.0000000000e+00
0.0000000000e+00 0.0000000000e+00 0.0000000000e+00
0.0000000000e+00 0.0000000000e+00 0.0000000000e+00
0.0000000000e+00 0.0000000000e+00 0.0000000000e+00
0.0000000000e+00 0.0000000000e+00 0.0000000000e+00
0.0000000000e+00 0.0000000000e+00 0.0000000000e+00
0.0000000000e+00 0.0000000000e+00 0.0000000000e+00
0.0000000000e+00 0.0000000000e+00 0.0000000000e+00
0.0000000000e+00 0.0000000000e+00 0.0000000000e+00
0.0000000000e+00 0.0000000000e+00 0.0000000000e+00
0.0000000000e+00 0.0000000000e+00 0.0000000000e+00
0.0000000000e+00 0.0000000000e+00 0.0000000000e+00
0.0000000000e+00 0.0000000000e+00 0.0000000000e+00
4.8530590242e-07 -1.0053036439e-06 -2.9735307848e-06
3.8129849393e-07 -7.1552578668e-07 -1.3684036733e-06
-7.9158551377e-07 1.8047113624e-06 -4.2645514179e-06
0.0000000000e+00 0.0000000000e+00 0.0000000000e+00
0.0000000000e+00 0.0000000000e+00 0.0000000000e+00
0.0000000000e+00 0.0000000000e+00 0.0000000000e+00
0.0000000000e+00 0.0000000000e+00 0.0000000000e+00
0.0000000000e+00 0.0000000000e+00 0.0000000000e+00
0.0000000000e+00 0.0000000000e+00 0.0000000000e+00
0.0000000000e+00 0.0000000000e+00 0.0000000000e+00
0.0000000000e+00 0.0000000000e+00 0.0000000000e+00
0.0000000000e+00 0.0000000000e+00 0.0000000000e+00
0.0000000000e+00 0.0000000000e+00 0.0000000000e+00
0.0000000000e+00 0.0000000000e+00 0.0000000000e+00
0.0000000000e+00 0.0000000000e+00 0.0000000000e+00
0.0000000000e+00 0.0000000000e+00 0.0000000000e+00
0.0000000000e+00 0.0000000000e+00 0.0000000000e+00
0.0000000000e+00 0.0000000000e+00 0.0000000000e+00
0.0000000000e+00 0.0000000000e+00 0.0000000000e+00
0.0000000000e+00 0.0000000000e+00 0.0000000000e+00
0.0000000000e+00 0.0000000000e+00 0.0000000000e+00
0.0000000000e+00 0.0000000000e+00 0.0000000000e+00
0.0000000000e+00 0.0000000000e+00 0.0000000000e+00
0.0000000000e+00 0.0000000000e+00 0.0000000000e+00
0.0000000000e+00 0.0000000000e+00 0.0000000000e+00
0.0000000000e+00 0.0000000000e+00 0.0000000000e+00
0.0000000000e+00 0.0000000000e+00 0.0000000000e+00
0.0000000000e+00 0.0000000000e+00 0.0000000000e+00
0.0000000000e+00 0.0000000000e+00 0.0000000000e+00
0.0000000000e+00 0.0000000000e+00 0.0000000000e+00
0.0000000000e+00 0.0000000000e+00 0.0000000000e+00
0.0000000000e+00 0.0000000000e+00 0.0000000000e+00
0.0000000000e+00 0.0000000000e+00 0.0000000000e+00
0.0000000000e+00 0.0000000000e+00 0.0000000000e+00
0.0000000000e+00 0.0000000000e+00 0.0000000000e+00
0.0000000000e+00 0.0000000000e+00 0.0000000000e+00
0.0000000000e+00 0.0000000000e+00 0.0000000000e+00
0.0000000000e+00 0.0000000000e+00 0.0000000000e+00
0.0000000000e+00 0.0000000000e+00 0.0000000000e+00
0.0000000000e+00 0.0000000000e+00 0.0000000000e+00
0.0000000000e+00 0.0000000000e+00 0.0000000000e+00
0.0000000000e+00 0.0000000000e+00 0.0000000000e+00
0.0000000000e+00 0.0000000000e+00 0.0000000000e+00
0.0000000000e+00 0.0000000000e+00 0.0000000000e+00
0.0000000000e+00 0.0000000000e+00 0.0000000000e+00
0.0000000000e+00 0.0000000000e+00 0.0000000000e+00
0.0000000000e+00 0.0000000000e+00 0.0000000000e+00
0.0000000000e+00 0.0000000000e+00 0.0000000000e+00
0.0000000000e+00 0.0000000000e+00 0.0000000000e+00
0.0000000000e+00 0.0000000000e+00 0.0000000000e+00
0.0000000000e+00 0.0000000000e+00 0.0000000000e+00
0.0000000000e+00 0.0000000000e+00 0.0000000000e+00
0.0000000000e+00 0.0000000000e+00 0.0000000000e+00
0.0000000000e+00 0.0000000000e+00 0.0000000000e+00
0.0000000000e+00 0.0000000000e+00 0.0000000000e+00
0.0000000000e+00 0.0000000000e+00 0.0000000000e+00
0.0000000000e+00 0.0000000000e+00 0.0000000000e+00
0.0000000000e+00 0.0000000000e+00 0.0000000000e+00
0.0000000000e+00 0.0000000000e+00 0.0000000000e+00
0.0000000000e+00 0.0000000000e+00 0.0000000000e+00
0.0000000000e+00 0.0000000000e+00 0.0000000000e+00
0.0000000000e+00 0.0000000000e+00 0.0000000000e+00
0.0000000000e+00 0.0000000000e+00 0.0000000000e+00
0.0000000000e+00 0.0000000000e+00 0.0000000000e+00
0.0000000000e+00 0.0000000000e+00 0.0000000000e+00
0.0000000000e+00 0.0000000000e+00 0.0000000000e+00
0.0000000000e+00 0.0000000000e+00 0.0000000000e+00
0.0000000000e+00 0.0000000000e+00 0.0000000000e+00
0.0000000000e+00 0.0000000000e+00 0.0000000000e+00
0.0000000000e+00 0.0000000000e+00 0.0000000000e+00
0.0000000000e+00 0.0000000000e+00 0.0000000000e+00
0.0000000000e+00 0.0000000000e+00 0.0000000000e+00
0.0000000000e+00 0.0000000000e+00 0.0000000000e+00
0.0000000000e+00 0.0000000000e+00 0.0000000000e+00
0.0000000000e+00 0.0000000000e+00 0.0000000000e+00
0.0000000000e+00 0.0000000000e+00 0.0000000000e+00
0.0000000000e+00 0.0000000000e+00 0.0000000000e+00
0.0000000000e+00 0.0000000000e+00 0.0000000000e+00
0.0000000000e+00 0.0000000000e+00 0.0000000000e+00
0.0000000000e+00 0.0000000000e+00 0.0000000000e+00
0.0000000000e+00 0.0000000000e+00 0.0000000000e+00
0.0000000000e+00 0.0000000000e+00 0.0000000000e+00
0.0000000000e+00 0.0000000000e+00 0.0000000000e+00
0.0000000000e+00 0.0000000000e+00 0.0000000000e+00
0.0000000000e+00 0.0000000000e+00 0.0000000000e+00
0.0000000000e+00 0.0000000000e+00 0.0000000000e+00
0.0000000000e+00 0.0000000000e+00 0.0000000000e+00
0.0000000000e+00 0.0000000000e+00 0.0000000000e+00
0.0000000000e+00 0.0000000000e+00 0.0000000000e+00
0.0000000000e+00 0.0000000000e+00 0.0000000000e+00
0.0000000000e+00 0.0000000000e+00 0.0000000000e+00
0.0000000000e+00 0.0000000000e+00 0.0000000000e+00
0.0000000000e+00 0.0000000000e+00 0.0000000000e+00
0.0000000000e+00 0.0000000000e+00 0.0000000000e+00
0.0000000000e+00 0.0000000000e+00 0.0000000000e+00
0.0000000000e+00 0.0000000000e+00 0.0000000000e+00
0.0000000000e+00 0.0000000000e+00 0.0000000000e+00
0.0000000000e+00 0.0000000000e+00 0.0000000000e+00
0.0000000000e+00 0.0000000000e+00 0.0000000000e+00
0.0000000000e+00 0.0000000000e+00 0.0000000000e+00
0.0000000000e+00 0.0000000000e+00 0.0000000000e+00
0.0000000000e+00 0.0000000000e+00 0.0000000000e+00
0.0000000000e+00 0.0000000000e+00 0.0000000000e+00
0.0000000000e+00 0.0000000000e+00 0.0000000000e+00
0.0000000000e+00 0.0000000000e+00 0.0000000000e+00
0.0000000000e+00 0.0000000000e+00 0.0000000000e+00
0.0000000000e+00 0.0000000000e+00 0.0000000000e+00
0.0000000000e+00 0.0000000000e+00 0.0000000000e+00
0.0000000000e+00 0.0000000000e+00 0.0000000000e+00
0.0000000000e+00 0.0000000000e+00 0.0000000000e+00
0.0000000000e+00 0.0000000000e+00 0.0000000000e+00
0.0000000000e+00 0.0000000000e+00 0.0000000000e+00
0.0000000000e+00 0.0000000000e+00 0.0000000000e+00
0.0000000000e+00 0.0000000000e+00 0.0000000000e+00
0.0000000000e+00 0.0000000000e+00 0.0000000000e+00
0.0000000000e+00 0.0000000000e+00 0.0000000000e+00
0.0000000000e+00 0.0000000000e+00 0.0000000000e+00
0.0000000000e+00 0.0000000000e+00 0.0000000000e+00
0.0000000000e+00 0.0000000000e+00 0.0000000000e+00
0.0000000000e+00 0.0000000000e+00 0.0000000000e+00
0.0000000000e+00 0.0000000000e+00 0.0000000000e+00
0.0000000000e+00 0.0000000000e+00 0.0000000000e+00
0.0000000000e+00 0.0000000000e+00 0.0000000000e+00
0.0000000000e+00 0.0000000000e+00 0.0000000000e+00
0.0000000000e+00 0.0000000000e+00 0.0000000000e+00
0.0000000000e+00 0.0000000000e+00 0.0000000000e+00
0.0000000000e+00 0.0000000000e+00 0.0000000000e+00
0.0000000000e+00 0.0000000000e+00 0.0000000000e+00
0.0000000000e+00 0.0000000000e+00 0.0000000000e+00
0.0000000000e+00 0.0000000000e+00 0.0000000000e+00
0.0000000000e+00 0.0000000000e+00 0.0000000000e+00
0.0000000000e+00 0.0000000000e+00 0.0000000000e+00
0.0000000000e+00 0.0000000000e+00 0.0000000000e+00
0.0000000000e+00 0.0000000000e+00 0.0000000000e+00
0.0000000000e+00 0.0000000000e+00 0.0000000000e+00
0.0000000000e+00 0.0000000000e+00 0.0000000000e+00
0.0000000000e+00 0.0000000000e+00 0.0000000000e+00
0.0000000000e+00 0.0000000000e+00 0.0000000000e+00
0.0000000000e+00 0.0000000000e+00 0.0000000000e+00
0.0000000000e+00 0.0000000000e+00 0.0000000000e+00
0.0000000000e+00 0.0000000000e+00 0.0000000000e+00
0.0000000000e+00 0.0000000000e+00 0.0000000000e+00
0.0000000000e+00 0.0000000000e+00 0.0000000000e+00
0.0000000000e+00 0.0000000000e+00 0.0000000000e+00
0.0000000000e+00 0.0000000000e+00 0.0000000000e+00
0.0000000000e+00 0.0000000000e+00 0.0000000000e+00
0.0000000000e+00 0.0000000000e+00 0.0000000000e+00
0.0000000000e+00 0.0000000000e+00 0.0000000000e+00
0.0000000000e+00 0.0000000000e+00 0.0000000000e+00
0.0000000000e+00 0.0000000000e+00 0.0000000000e+00
0.0000000000e+00 0.0000000000e+00 0.0000000000e+00
0.0000000000e+00 0.0000000000e+00 0.0000000000e+00
0.0000000000e+00 0.0000000000e+00 0.0000000000e+00
0.0000000000e+00 0.0000000000e+00 0.0000000000e+00
0.0000000000e+00 0.0000000000e+00 0.0000000000e+00
0.0000000000e+00 0.0000000000e+00 0.0000000000e+00
0.0000000000e+00 0.0000000000e+00 0.0000000000e+00
0.0000000000e+00 0.0000000000e+00 0.0000000000e+00
0.0000000000e+00 0.0000000000e+00 0.0000000000e+00
0.0000000000e+00 0.0000000000e+00 0.0000000000e+00
0.0000000000e+00 0.0000000000e+00 0.0000000000e+00
0.0000000000e+00 0.0000000000e+00 0.0000000000e+00
0.0000000000e+00 0.0000000000e+00 0.0000000000e+00
0.0000000000e+00 0.0000000000e+00 0.0000000000e+00
0.0000000000e+00 0.0000000000e+00 0.0000000000e+00
0.0000000000e+00 0.0000000000e+00 0.0000000000e+00
0.0000000000e+00 0.0000000000e+00 0.0000000000e+00
0.0000000000e+00 0.0000000000e+00 0.0000000000e+00
0.0000000000e+00 0.0000000000e+00 0.0000000000e+00
-1.8409337373e-06 6.7740471917e-07 -3.2945276647e-06
5.6359656589e-07 -1.5493782402e-06 -1.7371955270e-06
-2.0791112434e-06 -6.0369855115e-07 -2.1192345192e-06
0.0000000000e+00 0.0000000000e+00 0.0000000000e+00
0.0000000000e+00 0.0000000000e+00 0.0000000000e+00
1.6175932979e-06 3.0732252332e-06 -1.2731305867e-05
-9.9977338624e-07 1.4267979468e-06 -7.9806783949e-06
-3.8573512476e-07 1.0874484475e-06 -9.6373872529e-06
3.6089746696e-06 1.8170875305e-06 -5.7482507265e-06
0.0000000000e+00 0.0000000000e+00 0.0000000000e+00
0.0000000000e+00 0.0000000000e+00 0.0000000000e+00