# vtk DataFile Version 3.0
VEM 3D Result
ASCII
DATASET UNSTRUCTURED_GRID

POINTS 352 double
61.1001923161 11.3231148341 198.3330915303
37.2994240466 39.5495260133 131.3453586034
41.2766919808 44.1182300138 110.1689217307
89.9719458346 0.0000000000 136.3029059691
40.9896843520 13.0070578084 144.4279609948
1.0993441734 35.7968026175 204.2426063103
67.3874563200 0.0000000000 189.2216650340
75.9431123031 0.0000000000 181.6688666476
103.8581484440 102.2519347266 32.0470078851
141.0000000000 169.5000000000 0.0000000000
123.6092840636 113.9592065641 0.0000000000
141.0000000000 0.0000000000 0.0000000000
42.2654525305 45.1647827805 109.4760846788
40.1292922338 46.5188567298 104.4975754547
38.2949134139 49.2900625587 96.0050517146
50.0566929506 52.2431296180 163.8665297732
58.1086653165 53.6013567970 97.9467693461
60.5311945012 55.2251623568 103.0274154946
61.8873001758 58.7182030009 100.7413213094
62.0419458272 56.3270725822 108.0259165978
50.3084378058 99.2970499827 119.3977535400
41.0031899766 15.8595947428 108.9247110341
39.6353191800 31.3970286483 110.7551704859
34.5851291115 29.3338786283 92.5937202343
36.5541040870 31.9954186879 130.2740475845
19.4177520324 30.8423083656 164.9965074939
36.8365816691 24.1148139159 131.9869391107
42.3872923554 137.0648468114 121.2493448741
84.4153644166 45.7322453441 159.5468777911
84.4520491876 45.7545455937 159.5420253017
77.4031736549 51.1750069889 145.1738632255
86.8956956674 55.3188775429 146.4824530874
59.0726906005 56.8398544958 153.1162966301
53.9362666637 54.9360357447 173.8984349292
51.4292269779 56.6698087511 183.0352528827
49.4082096297 88.1739092709 179.0190881727
108.9870762907 47.0592640456 150.0587443900
136.4848405230 55.8586907833 130.0083826991
71.6735250554 0.0000000000 86.9202658822
70.8639805743 0.0000000000 85.5641203545
125.8754578313 0.0000000000 0.0000000000
71.0697372232 0.0000000000 0.0000000000
57.6697673735 55.5035332914 92.6657870515
60.8613934175 68.2057599677 78.3886206238
51.1609738484 96.9798062548 33.8177741679
71.2808569295 94.4921177840 26.0811472208
56.7282509334 93.0041564422 43.0292768784
69.9935104938 4.5331843837 0.0000000000
56.8045861022 105.4462710674 0.0000000000
76.0561905866 100.9223136614 0.0000000000
30.1037243343 56.1294627522 90.9478887051
24.7678485742 85.6388330090 157.2869520524
0.0000000000 85.3259040008 206.0762935130
47.7236285000 0.0000000000 103.0362539935
46.8235715608 0.0000000000 129.9603937832
89.0858289162 0.0000000000 251.2070694834
50.6967434783 132.5091127777 0.0000000000
51.2897696121 153.8800351319 34.0623207008
0.0000000000 169.5000000000 0.0000000000
61.0166950532 169.5000000000 0.0000000000
59.5848789331 169.5000000000 9.1799525539
50.8389049968 133.4847897675 0.0000000000
0.0000000000 169.5000000000 122.0903078755
0.0000000000 149.4218802978 133.8692651889
0.0000000000 135.7383871589 0.0000000000
50.2723795620 132.7932671881 0.0000000000
73.6923748983 26.5702424407 192.0121450627
82.2584592547 45.2723797899 166.4687574757
83.4060958946 46.1665265312 167.8489352421
64.0775996573 35.5786820970 203.3330788575
62.9176128722 46.7284677111 198.8793435320
84.5127397615 21.5633299850 245.0695990732
93.7174603824 48.6611868608 196.7568867758
139.1974729119 20.7502193743 125.5870645406
141.0000000000 0.0000000000 107.1589654842
133.8429781632 0.0000000000 118.2765851784
141.0000000000 22.8611818141 124.3769201439
141.0000000000 50.1375101387 253.4530543783
7.3541678958 28.5599135409 357.0000000000
9.8215826818 41.0855688298 357.0000000000
16.2010648362 0.0000000000 357.0000000000
25.5571397568 0.0000000000 357.0000000000
46.0273982359 118.3469334304 35.2109011298
45.1363556002 101.9096635217 55.8065865143
42.6998872465 100.9029730708 59.9642301164
9.1022992693 124.7699517532 72.4854827606
43.4783049787 103.7261438644 85.2663664681
37.7350174538 101.0365115774 91.6959854875
40.5414886163 127.8876107477 131.7171308357
40.6394200228 129.2918819928 129.5635876079
21.5462913232 134.4610133901 165.2554172489
0.0000000000 101.0142318417 111.7531917682
0.0000000000 123.4913102138 85.0712854704
0.0000000000 128.1110300523 97.2907531726
0.0000000000 101.2601935339 164.1875530350
0.0000000000 137.8840145269 184.1189144459
0.0000000000 134.4679646668 213.5570943158
0.0000000000 132.2644465739 216.5917768608
52.3020679827 155.7117728565 118.4155520665
0.0000000000 169.5000000000 229.9960084896
0.0000000000 156.0448429651 235.9931764992
59.6241180336 169.5000000000 95.7888176214
44.3228423762 89.6740961616 38.4159330362
44.0650275512 89.5266957733 38.7913640692
41.5932878908 55.7409052391 79.3462065698
41.4767060622 55.9436678128 80.6862108020
41.6878944107 56.1565220450 80.2692858584
34.6880673739 53.0365159366 89.4149982373
30.4371390399 56.2252589127 88.9319535494
42.8937277253 91.3434834002 0.0000000000
112.6242269791 53.8039839103 302.2440080067
121.3446712345 60.0070698866 271.5986917654
118.0160799566 63.6532106451 280.0522874107
13.4300548948 44.4707324325 348.8318577206
46.3817504173 59.7984857265 211.8944479907
40.9510456444 80.3100136137 209.8658435829
43.1731047302 81.6302585950 205.8466548544
43.4022154072 75.9446165450 207.1012171901
0.0000000000 78.3613926713 312.3795064430
51.5163453337 118.6268862769 180.6723769741
54.0285059716 104.4628889560 207.0302965025
59.1674351487 105.9910030674 209.4408839251
57.2606114630 107.9848077853 190.3803515506
57.1266603198 107.3549696632 192.1954976679
63.6984252052 109.6277793506 192.6448615188
0.0000000000 122.0503328128 307.5682307633
0.0000000000 105.2733761094 346.5779619057
106.7897883115 60.2284722508 335.1817200191
117.7102297036 65.5148120313 282.5755587925
109.4574713971 9.7069317768 258.1107681718
91.5044906425 24.6622108608 260.4769536100
93.5831060631 28.0619210555 257.6714963317
88.1509236767 32.0000998189 274.1605353107
94.0034648388 33.1415982286 260.2407714625
127.1821343654 37.8011653209 280.9294147596
126.6688255543 35.9690999947 285.9125148405
116.9494482968 48.5246798994 291.5513251921
119.9670503971 48.8057505561 281.9530551276
97.5987047598 0.0000000000 269.3362735665
104.8405397884 0.0000000000 265.4056137554
0.0000000000 0.0000000000 357.0000000000
0.0000000000 0.0000000000 226.2550626891
0.0000000000 35.8775160055 205.8396582564
0.0000000000 54.2931009248 147.4998639676
34.3475448809 0.0000000000 79.4795474091
31.3163243381 0.0000000000 69.0979677741
20.2747119397 0.0000000000 93.7450325312
30.3347271578 0.0000000000 67.6706208605
140.1069376620 85.5492296489 357.0000000000
121.8157551901 107.2839194919 42.8156525732
111.4166836634 80.9507943976 105.7641536567
136.7509161013 57.3062053465 128.0648999814
83.5462287243 112.6304128571 179.1782354031
85.9085555209 100.7772062242 181.4994698063
83.5968674659 102.0979333695 200.1061350680
139.7424240366 119.8405487824 0.0000000000
141.0000000000 122.8693206201 0.0000000000
141.0000000000 119.2201506187 0.0000000000
141.0000000000 169.5000000000 65.2067906311
141.0000000000 55.8918770996 126.6202183346
141.0000000000 55.9931825529 126.4980105843
141.0000000000 59.7991055943 246.0746397094
58.8161725300 49.5512138307 214.2216013554
55.9307887301 51.7609343548 218.5422305982
54.2106281222 46.5207241131 236.7162195753
49.4122059468 47.4102187300 250.5267209146
79.4484858612 55.1557241322 203.7606408111
59.6440511170 44.6609792477 271.7513669613
46.1296725082 47.4721010818 292.4636516889
47.0670499396 53.3051992283 347.5743595869
73.1549598431 78.9094669501 313.5052875618
80.8559233830 89.2062314347 213.4497935088
75.0783604180 82.7251632474 222.4860342236
78.8794131277 66.3844209041 214.9160009998
73.6665684610 71.6591995877 223.9462371414
76.2101780958 78.0628819743 265.4257458433
91.6397003294 93.7727696176 227.3823628377
92.0379362301 96.3065977699 236.9874264225
89.5767830612 95.7536935694 224.1951533183
82.5131117167 79.7827348997 295.8959216841
90.8373257095 86.9465738614 299.2622854748
97.3498586444 83.7722454623 288.6057791485
138.0301763886 169.5000000000 75.2087265765
141.0000000000 169.5000000000 85.4120031687
47.6288782797 114.3368651830 319.0955431424
73.3958535219 169.5000000000 128.9927863567
141.0000000000 0.0000000000 357.0000000000
134.4026084363 24.3806185416 323.8733402792
121.0317153293 23.1029197906 300.4405155623
141.0000000000 21.3407869332 336.5108885297
141.0000000000 21.4465994873 357.0000000000
141.0000000000 0.0000000000 342.7641248901
106.4056420420 0.0000000000 281.1679950811
76.1583302081 0.0000000000 357.0000000000
105.8481842398 60.6440767077 357.0000000000
99.7513503626 60.5129933234 357.0000000000
132.7203834875 25.3434433564 357.0000000000
10.1413668938 44.4220585952 357.0000000000
44.2658547138 53.5138066734 357.0000000000
0.0000000000 106.3400575361 357.0000000000
0.0000000000 27.9404672579 178.0580205522
0.0000000000 0.0000000000 130.5871196880
16.8860618018 34.7511274160 62.0894146107
11.5267706470 23.4031235071 26.3428554746
24.3784730752 11.4508059257 66.3259602459
21.6529964010 25.5866967572 71.3948000299
0.3847030469 8.3760146222 133.0215667753
0.0000000000 25.0958415875 131.1884227490
0.0000000000 8.6492648382 134.0350988996
0.0000000000 8.3921479041 133.7266634525
39.4828064681 0.0000000000 0.0000000000
42.7928736073 16.0605303312 0.0000000000
35.3816043019 34.5379284544 0.0000000000
141.0000000000 85.6948412079 357.0000000000
81.6984334255 109.4477003777 188.9689473968
81.7038652118 109.4940927851 188.9056514115
75.1142676075 112.1008810191 192.2955366687
77.3856848639 112.3391667975 189.7100961233
82.4158375356 105.6577855764 197.4468822371
92.6474994563 97.2400697213 240.8802587461
72.5353467125 112.4224243479 195.4107915065
72.0776970551 112.0676321058 197.0036408164
74.3006793503 115.5896097938 194.3069373741
57.8296970137 116.4012687675 289.6925322983
73.7706554049 103.6256473496 350.3296701703
70.6198218514 46.9375084001 297.7017674609
69.7409320933 45.7100382396 285.8193435389
75.5392982461 44.4780480419 294.4769438189
77.4620044652 42.7710348482 287.6425126491
91.2309736902 69.2698315640 272.1485246380
94.4794680214 42.8935149439 250.1370744501
[...]
POINT_DATA 352
VECTORS displacement double
-4.9808843473e-05 6.8133869242e-05 -4.0454193387e-04
-7.8334613211e-05 2.1252994379e-05 -2.7654807936e-04
-5.8124462731e-05 -2.1571171473e-05 -1.8728756787e-04
-3.4466748216e-05 3.0608683722e-06 -2.3246335785e-04
-5.2698774948e-05 5.0884552339e-05 -1.8951522143e-04
-2.1057775733e-04 6.7177165935e-05 -5.8422719312e-04
-3.8061859753e-05 5.8114194208e-05 -3.5518005496e-04
-3.0933594230e-05 4.4654161379e-05 -3.2765951622e-04
2.6223937997e-05 1.3564289038e-05 -3.4962697044e-05
0.0000000000e+00 0.0000000000e+00 0.0000000000e+00
0.0000000000e+00 0.0000000000e+00 0.0000000000e+00
0.0000000000e+00 0.0000000000e+00 0.0000000000e+00
-4.9703636667e-05 -1.3600424819e-05 -1.9283278284e-04
-4.9101110470e-05 -1.4115568812e-05 -1.7631414880e-04
-4.7095884375e-05 -1.7430372557e-05 -1.5425412302e-04
-8.6214333440e-05 9.0271729167e-05 -4.2166737252e-04
-3.2636238780e-05 -9.3778564203e-06 -1.5055208610e-04
7.1441702115e-07 3.8897576720e-06 -1.4961670309e-04
-1.0260601799e-05 2.4867667974e-05 -1.7921583152e-04
-5.4315657577e-05 3.3031209834e-05 -2.0941269045e-04
-9.1702110710e-05 4.9297485381e-05 -2.6302992114e-04
-6.3356174150e-05 -2.7282126917e-05 -1.7893820037e-04
-6.7478418617e-05 -2.8004525030e-05 -2.0231652197e-04
-4.9165631817e-05 -3.5616705838e-05 -1.5181266118e-04
-7.8247651462e-05 9.2594131275e-06 -2.4294339461e-04
-1.4579992934e-04 2.5652990032e-05 -3.6434398097e-04
-8.7278209769e-05 1.7038922376e-05 -2.2851063491e-04
-1.1453146069e-04 1.0599898895e-04 -2.9809726184e-04
-5.2969689813e-05 8.0166682563e-05 -3.2784067220e-04
-5.4904636096e-05 8.9061949370e-05 -3.4475521971e-04
-2.6140919838e-05 7.2816988953e-05 -2.7685944382e-04
-2.4821381202e-05 9.1704966812e-05 -2.8988979378e-04
-6.1533229904e-05 1.0713539350e-04 -3.5297587462e-04
-7.4157485978e-05 1.0811441022e-04 -4.1427474520e-04
-1.0837337815e-04 1.1975799879e-04 -5.2535685159e-04
-1.1809897840e-04 1.4712036205e-04 -5.0116721128e-04
-1.2842810597e-05 8.0690254340e-05 -2.8628399590e-04
2.7533236436e-05 6.3667714516e-05 -1.9835866948e-04
2.1499864342e-05 -4.4928780373e-05 -8.6743243736e-05
-1.5584354658e-05 -4.8486479567e-05 -1.0181899631e-04
0.0000000000e+00 0.0000000000e+00 0.0000000000e+00
0.0000000000e+00 0.0000000000e+00 0.0000000000e+00
-2.0148129780e-05 -1.3286413868e-05 -1.3230809108e-04
-2.1361156375e-05 1.8443365127e-05 -1.3912826176e-04
-3.1219819583e-05 2.7127316214e-05 -5.1918613224e-05
-3.2944693244e-06 9.8814255424e-06 -3.9037848238e-05
-3.1553157081e-05 6.6982036682e-06 -5.1818973451e-05
0.0000000000e+00 0.0000000000e+00 0.0000000000e+00
0.0000000000e+00 0.0000000000e+00 0.0000000000e+00
0.0000000000e+00 0.0000000000e+00 0.0000000000e+00
-5.7623044882e-05 -1.2884826074e-05 -1.4783953003e-04
-1.3778334915e-04 8.1671753719e-05 -4.1780450816e-04
-1.9658333548e-04 1.2247466912e-04 -5.8061864444e-04
-2.7283399584e-05 -3.1655374884e-05 -1.8596896679e-04
-2.4979906123e-05 3.8193038589e-05 -1.2446626999e-04
-4.1855816225e-05 8.6249682602e-05 -5.7462140164e-04
0.0000000000e+00 0.0000000000e+00 0.0000000000e+00
-3.5549229193e-05 3.7858239589e-05 -5.2258469254e-05
0.0000000000e+00 0.0000000000e+00 0.0000000000e+00
0.0000000000e+00 0.0000000000e+00 0.0000000000e+00
0.0000000000e+00 0.0000000000e+00 0.0000000000e+00
0.0000000000e+00 0.0000000000e+00 0.0000000000e+00
-1.7729433662e-04 1.8014023509e-04 -4.2718355234e-04
-1.9868109248e-04 1.3141405300e-04 -4.0551880206e-04
0.0000000000e+00 0.0000000000e+00 0.0000000000e+00
0.0000000000e+00 0.0000000000e+00 0.0000000000e+00
-5.6165667225e-05 9.4795685695e-05 -4.4364489145e-04
-5.8657278817e-05 1.0068708512e-04 -3.7326198684e-04
-6.4880949179e-05 1.0400750722e-04 -3.8887939690e-04
-5.6070731497e-05 1.0509613061e-04 -4.4925095555e-04
-6.9570086733e-05 1.2072920700e-04 -4.9411455811e-04
-6.4064747950e-05 1.0820263619e-04 -6.2918841246e-04
-4.4353998409e-05 1.3391505845e-04 -4.5820094718e-04
3.0471675063e-05 2.3066712149e-05 -1.8847368942e-04
5.9133189731e-05 -2.4759002899e-05 -6.3006863996e-05
3.9475200999e-05 -1.2416093108e-05 -1.4259930798e-04
3.3449184522e-05 2.1468532110e-05 -1.5631590592e-04
-2.7616463780e-05 2.1212603205e-04 -6.5222678741e-04
-3.2738647496e-04 1.3272245442e-04 -1.4437091521e-03
-3.2688394557e-04 1.7255660982e-04 -1.3918856382e-03
-3.0714589685e-04 8.4068322018e-05 -1.4617330009e-03
-2.7048117905e-04 1.4678527830e-04 -1.3929862458e-03
-8.3494244378e-06 1.0915618107e-05 -1.8289350624e-05
-4.2761449965e-05 3.3178350536e-05 -9.0896786046e-05
-4.4739736762e-05 1.5177790365e-05 -1.0739817396e-04
-1.0161605602e-04 2.8389296570e-05 -1.7062994855e-04
-8.5400245268e-05 5.9748815747e-05 -1.7472073853e-04
-8.6387645075e-05 4.8590969186e-05 -2.0054851525e-04
-1.4636947227e-04 1.2026169737e-04 -3.8567630175e-04
-1.1148797183e-04 9.7692212788e-05 -3.0926768858e-04
-1.8773900731e-04 1.3762971509e-04 -4.7787985101e-04
-1.3716333573e-04 2.3732857748e-05 -2.9050091829e-04
-1.2084740509e-04 4.6667856330e-05 -1.9349898890e-04
-1.5341095222e-04 4.3059190482e-05 -2.6218251769e-04
-1.7630688040e-04 9.9461496250e-05 -4.5141766659e-04
-2.2009436845e-04 1.5551373821e-04 -5.4715248638e-04
-2.8883406287e-04 1.9065192764e-04 -7.3442637771e-04
-2.8373325327e-04 2.0031952605e-04 -7.7247886301e-04
-1.0960279907e-04 1.1835781999e-04 -3.1425450447e-04
-2.9044338745e-04 2.7234605783e-04 -8.4853601733e-04
-3.1665516445e-04 2.8394321448e-04 -9.5067248566e-04
-6.7742531967e-05 9.4497158312e-05 -1.6230129780e-04
-3.7237510466e-05 2.2170702826e-05 -7.0451348240e-05
-2.7467938809e-05 3.4262930719e-06 -5.5132182083e-05
-3.6983112194e-05 -2.0706586575e-05 -1.0395922449e-04
-3.5900930186e-05 -1.3901954135e-05 -1.1445136341e-04
-4.2129272823e-05 -9.7377985032e-06 -1.2389563203e-04
-5.7481521672e-05 -1.8284648722e-05 -1.4226453482e-04
-6.0487072278e-05 -2.1170107499e-06 -1.5935311932e-04
0.0000000000e+00 0.0000000000e+00 0.0000000000e+00
-1.0135522381e-04 2.7840620445e-04 -9.6339987429e-04
-6.1400388986e-05 2.2300388138e-04 -7.6501151229e-04
-8.6218114106e-05 2.4938428505e-04 -7.9632628226e-04
-3.0968255071e-04 2.1185730977e-04 -1.4802656795e-03
-1.5665231369e-04 1.6176009980e-04 -6.3415353248e-04
-1.8292838602e-04 1.5337909799e-04 -6.1871790407e-04
-1.8175205178e-04 1.4135843739e-04 -5.7093552195e-04
-1.4787903247e-04 1.5358152579e-04 -5.3949518424e-04
-3.3488833720e-04 2.6163570896e-04 -1.0602795752e-03
-1.2981941810e-04 1.6358693797e-04 -5.5506359725e-04
-1.7377234996e-04 1.9659256362e-04 -6.5444170759e-04
-1.2417300534e-04 1.7541871140e-04 -6.4667063422e-04
-1.1765839415e-04 1.4329950997e-04 -5.1930943176e-04
-1.1261988418e-04 1.8839671057e-04 -5.6062472351e-04
-6.7357445203e-05 1.2905621648e-04 -4.3410295729e-04
-3.4841282709e-04 3.4416698028e-04 -1.2452407232e-03
-3.8212741878e-04 3.8884356838e-04 -1.5905522185e-03
-1.5137805938e-04 3.2510171751e-04 -1.2024227073e-03
-8.5379570421e-05 2.2150563355e-04 -8.2141944190e-04
-2.8029694929e-05 1.3432534696e-04 -7.1094860864e-04
-7.0060026081e-05 1.4129697521e-04 -7.0363588741e-04
-5.8856956212e-05 1.5312233249e-04 -6.6644843722e-04
-1.0941817348e-04 1.6513548626e-04 -7.7110067755e-04
-8.2300149734e-05 1.7218593430e-04 -6.9443910173e-04
-4.9679989119e-05 2.1886986636e-04 -8.3373806727e-04
-3.8900007501e-05 2.2382416738e-04 -8.5255541314e-04
-7.5775275161e-05 2.5575755898e-04 -8.8926541068e-04
-6.8838514511e-05 2.3514219176e-04 -8.0048089700e-04
-5.3697286587e-05 1.1767986751e-04 -7.0127918731e-04
-2.0294830987e-05 1.2220871849e-04 -7.1588290488e-04
-3.3463133612e-04 5.7366555351e-05 -1.5240719827e-03
-1.8870853923e-04 6.3567634701e-05 -6.3973307993e-04
-1.9011963496e-04 6.6551613408e-05 -5.4194275502e-04
-1.3433813655e-04 2.8897686164e-05 -3.4983525632e-04
-2.8133208867e-05 -4.5890525969e-05 -1.2450436691e-04
-2.0880939718e-05 -5.1992007347e-05 -1.1285742165e-04
-4.9112991460e-05 -5.7075587198e-05 -1.6817138853e-04
-3.0397842711e-05 -5.5115230591e-05 -1.1770791349e-04
-1.1652853408e-04 4.9622408923e-04 -1.2707744968e-03
2.9037942394e-05 -6.2702193956e-06 2.4088362538e-06
8.0751927016e-07 5.9853512778e-05 -1.6669044633e-04
2.9051670212e-05 4.6213169247e-05 -1.7514459488e-04
-5.2619069107e-05 1.5438986717e-04 -4.1453434633e-04
-5.0755433399e-05 1.7726430310e-04 -4.2506693068e-04
-7.6851501401e-05 1.7720889570e-04 -4.9698424423e-04
0.0000000000e+00 0.0000000000e+00 0.0000000000e+00
0.0000000000e+00 0.0000000000e+00 0.0000000000e+00
0.0000000000e+00 0.0000000000e+00 0.0000000000e+00
2.9805161801e-05 1.2957597040e-04 -1.9021159369e-04
4.5679446090e-05 5.2865709898e-05 -2.1503423962e-04
4.1234352801e-05 2.2212082729e-05 -1.5086277519e-04
-1.4254407579e-05 2.0539727355e-04 -6.4674990202e-04
-1.1679690673e-04 1.2249094487e-04 -5.9066737497e-04
-1.2958229756e-04 1.4874103076e-04 -5.9296690490e-04
-1.3117990982e-04 1.3422994215e-04 -6.7209252567e-04
-1.5772295870e-04 1.6375377675e-04 -7.5469789429e-04
-9.3182431814e-05 1.3255714295e-04 -5.0526652657e-04
-1.5599221928e-04 1.5791955810e-04 -8.1354676424e-04
-2.0891428033e-04 1.8898511611e-04 -9.4365730877e-04
-2.7509313226e-04 2.9690737635e-04 -1.4985514113e-03
-2.1395547476e-04 3.2441092851e-04 -1.1164072220e-03
-9.4133166795e-05 1.7523744649e-04 -5.4483935441e-04
-1.1434359742e-04 1.6750043868e-04 -5.6853643206e-04
-1.0025004392e-04 1.5604685728e-04 -5.6354048290e-04
-1.2009384420e-04 1.7629975433e-04 -5.5818309415e-04
-1.5245293451e-04 2.4399057787e-04 -8.5375505985e-04
-6.4264334239e-05 2.0425728458e-04 -5.6485386844e-04
-6.9146732500e-05 2.3184194037e-04 -6.2527957572e-04
-6.4200224317e-05 2.0406770087e-04 -5.7406883320e-04
-1.6950918523e-04 3.0206837105e-04 -9.8910601122e-04
-1.7605595466e-04 3.2294524483e-04 -1.0592003161e-03
-1.4015784631e-04 2.6374440198e-04 -9.1175950852e-04
8.7388397417e-06 1.5403443714e-04 -2.8140184539e-04
-6.8271422252e-06 1.3950769685e-04 -2.6008240973e-04
-3.0038513120e-04 4.2655804585e-04 -1.3813564963e-03
-2.5311856560e-05 1.1895502848e-04 -1.8315372501e-04
1.3279426876e-05 1.4505293791e-04 -1.7193459413e-03
-2.5310055727e-05 2.7924780681e-04 -1.0674821831e-03
-3.7302383031e-05 2.3400598261e-04 -9.2993788988e-04
-1.2763813406e-05 2.9133792775e-04 -1.0471555817e-03
9.6331093806e-07 3.0546796577e-04 -1.2900439905e-03
2.1688489735e-05 2.7125104816e-04 -1.2479862353e-03
-2.5378926818e-05 1.6348021218e-04 -8.0237021304e-04
-2.1354243910e-04 2.1210244115e-04 -1.2530077940e-03
-1.6433461514e-04 4.0008083737e-04 -1.2374946320e-03
-2.0006473049e-04 3.7488523922e-04 -1.2800852642e-03
-4.7441132055e-05 3.1977322743e-04 -1.2365984508e-03
-3.4132526465e-04 2.6099988575e-04 -1.3139348234e-03
-2.9569176844e-04 3.1507018013e-04 -9.7749617267e-04
-3.9494469983e-04 4.7093921136e-04 -1.5303764468e-03
-1.5354621499e-04 1.2555670651e-05 -4.0773289281e-04
-9.7674014834e-05 -7.5716531897e-05 -2.7263035952e-04
-5.6759952879e-05 -2.4985475095e-05 -1.0716507300e-04
-2.4863081108e-05 -1.6597389473e-05 -4.3815769644e-05
-3.5146538647e-05 -3.4591414529e-05 -1.1871701471e-04
-5.5510776449e-05 -3.6110857895e-05 -1.3408223041e-04
-9.4869439217e-05 -5.0175373732e-05 -2.6486156776e-04
-1.0323404736e-04 -3.3564052060e-05 -2.7456083416e-04
-9.4724905952e-05 -4.4581587714e-05 -2.6355725721e-04
-9.5795847955e-05 -6.3293138191e-05 -2.6120546654e-04
0.0000000000e+00 0.0000000000e+00 0.0000000000e+00
0.0000000000e+00 0.0000000000e+00 0.0000000000e+00
0.0000000000e+00 0.0000000000e+00 0.0000000000e+00
-1.4387958980e-04 4.7769120667e-04 -1.3657913538e-03
-5.2486915370e-05 1.9808201051e-04 -4.5774527916e-04
-7.1576736331e-05 2.0146246108e-04 -4.9121970073e-04
-5.3685323181e-05 1.4602346868e-04 -4.0239291952e-04
-4.8270246455e-05 1.4060413464e-04 -3.9880306221e-04
-6.6863350074e-05 1.8448200303e-04 -4.5217583483e-04
-7.2331642102e-05 2.3725139499e-04 -6.2884846810e-04
-7.9570630148e-05 1.7715958395e-04 -5.0555582405e-04
-8.4713655189e-05 1.8127773214e-04 -4.6516625485e-04
-5.7006038587e-05 1.8139927792e-04 -4.8823930562e-04
-2.4931765038e-04 3.9025830946e-04 -1.0654166399e-03
-2.9787260340e-04 4.6006979419e-04 -1.6342404076e-03
-1.7297943930e-04 2.1169835113e-04 -9.1788599840e-04
-1.5406001990e-04 1.9498998350e-04 -8.6233786466e-04
-1.6819479568e-04 2.0644670825e-04 -8.9070495326e-04
-1.4280865030e-04 1.8970891051e-04 -8.4095914603e-04
-1.2382266277e-04 2.3843642302e-04 -8.0420358478e-04
-7.6754297593e-05 1.6890314225e-04 -6.5960600537e-04
-9.8721445852e-05 2.2468918990e-04 -7.2370704629e-04
-1.1554642804e-04 2.2379120573e-04 -7.6047900421e-04
-4.8508372002e-05 1.4686127882e-04 -4.8510556726e-04
-6.7212664447e-05 1.4323701524e-04 -4.9199377274e-04
-8.1683594329e-05 1.9275654065e-04 -6.2413836730e-04
-7.5766743461e-05 1.7557656082e-04 -5.9337806959e-04
-5.6960480304e-05 1.7909865332e-04 -5.7239523793e-04
-6.9254352509e-05 1.9624942395e-04 -6.7461331907e-04
-1.1085819628e-04 1.8378259715e-04 -4.6501738868e-04
-1.3523346978e-04 2.0215139226e-04 -5.1682633364e-04
-9.3792982484e-05 1.5218977179e-04 -4.3894796172e-04
-4.9212438162e-04 5.7775179882e-04 -2.1386021654e-03
-4.2255220197e-04 4.3295536615e-04 -1.4523840118e-03
-3.6483864859e-04 3.5521432688e-04 -1.2872308837e-03
-4.1460533019e-04 5.0891395607e-04 -1.7489376720e-03
-4.2326977458e-04 5.8432105532e-04 -1.9142619561e-03
-4.0811943401e-04 4.9109202218e-04 -1.5530432449e-03
-4.7460836629e-04 5.2145029914e-04 -1.7888169191e-03
-3.0256816863e-04 4.6108423866e-04 -1.5063293705e-03
-2.8329832069e-04 4.2415709816e-04 -1.3491014110e-03
0.0000000000e+00 0.0000000000e+00 0.0000000000e+00
0.0000000000e+00 0.0000000000e+00 0.0000000000e+00
0.0000000000e+00 0.0000000000e+00 0.0000000000e+00
-1.2163193420e-04 2.8274214115e-04 -7.5401141452e-04
-9.7142920670e-05 3.5863158462e-04 -7.2058772104e-04
-2.4334808950e-04 4.1531180798e-04 -1.1191411672e-03
-8.2838036409e-05 1.8358544558e-04 -5.4422091532e-04
-9.3599649762e-05 2.0176557348e-04 -4.8937097150e-04
-9.2716276384e-05 1.8325650996e-04 -5.2943297688e-04
-1.1275478635e-04 2.1620560885e-04 -5.2155882376e-04
-6.4709680225e-05 2.9556082761e-04 -6.9654504063e-04
-2.2692430876e-04 5.1000397500e-04 -1.6385218624e-03
-1.0886793830e-04 3.9117778574e-04 -8.3520403347e-04
-2.9520388811e-04 4.5658385722e-04 -1.7046465048e-03
-5.8319478751e-05 2.5545730876e-04 -6.9734461493e-04
-1.3478942825e-04 2.7830434863e-04 -9.1005003436e-04
-1.1092953189e-04 2.7589681623e-04 -7.9984815967e-04
-1.1798994749e-04 2.6767195134e-04 -7.5077524399e-04
-1.6933782877e-04 3.1933891550e-04 -1.0082980201e-03
-2.9182195952e-04 4.4666271475e-04 -1.6268876896e-03
-2.2889479139e-05 3.1330429093e-04 -6.4652710585e-04
-1.3986750598e-04 4.3726964463e-04 -1.0436415480e-03
-3.4787155665e-05 2.4414948672e-04 -9.2384969410e-04
-1.7851060728e-04 2.4369414658e-04 -1.0590468976e-03
-1.4136823547e-04 2.0247752887e-04 -9.4787135936e-04
-1.1792952333e-04 2.8058299643e-04 -1.0204512019e-03
-9.8756014914e-05 2.5786714457e-04 -9.4879118486e-04
-2.0023435474e-04 1.9458270615e-04 -1.2978787224e-03
-7.1020548001e-05 1.6777829256e-04 -8.8367066528e-04
-1.3486464677e-04 2.1785423047e-04 -1.0836323076e-03
-6.0546791282e-05 1.6166941423e-04 -7.9568672071e-04
-2.5425682764e-04 2.8473565493e-04 -1.2908859442e-03
-1.5843273740e-04 2.5438196108e-04 -1.3137597008e-03
-1.9945012708e-04 3.0623467317e-04 -1.3308608984e-03
-2.8598613490e-04 4.9475531958e-04 -1.6158599160e-03
-4.3966965081e-04 5.7458149368e-04 -1.8647498780e-03
-4.6763544710e-04 6.2466687718e-04 -1.9385303850e-03
-4.6172774988e-04 6.1583376728e-04 -1.9266454425e-03
-2.2409686855e-04 9.1106317987e-05 -6.3547276087e-04
-2.1981475940e-04 9.8211742197e-05 -6.7284902270e-04
-3.5923913156e-04 2.7982251011e-04 -1.2564688074e-03
-3.7729303133e-04 2.9065403137e-04 -1.6004684928e-03
-3.4196619514e-04 1.2919395594e-04 -1.4907258233e-03
-6.2409408393e-05 -1.9450285142e-06 -1.0098595477e-04
-8.0746159760e-05 -6.0197849753e-06 -1.6119986047e-04
-6.1063385772e-05 -2.3915812250e-05 -1.1851178331e-04
-2.5415972408e-05 -1.8010086787e-05 -4.6389876987e-05
-9.6170651313e-05 -1.2403090394e-05 -1.5054334019e-04
-1.1993851991e-04 -4.0377445506e-06 -2.4758145291e-04
-1.0140922572e-04 -2.6665104908e-05 -1.9192740478e-04
-4.5850802610e-05 -2.6364671094e-05 -7.1213667460e-05
0.0000000000e+00 0.0000000000e+00 0.0000000000e+00
0.0000000000e+00 0.0000000000e+00 0.0000000000e+00
0.0000000000e+00 0.0000000000e+00 0.0000000000e+00
0.0000000000e+00 0.0000000000e+00 0.0000000000e+00
-1.1069806961e-04 2.3906177316e-04 -5.5847185624e-04
-1.0407888121e-04 3.7117619328e-04 -7.6220944285e-04
-1.8852721736e-04 4.8443847772e-04 -1.1740351646e-03
-2.1700319224e-04 4.5143233758e-04 -1.2011565225e-03
-1.4187291744e-04 4.9074587949e-04 -1.4878649874e-03
-8.8513742022e-05 2.7922735654e-04 -8.3458390181e-04
-4.0382857652e-05 2.5340915746e-04 -7.5400810980e-04
-1.9333007636e-05 2.6079079966e-04 -7.2360178843e-04
-1.1930513799e-04 5.7025086388e-04 -1.1141333156e-03
7.4130405827e-06 3.6150789237e-04 -7.3345642879e-04
-1.5257318402e-04 5.0327784220e-04 -1.5200185784e-03
-3.4106789538e-05 2.7131836900e-04 -7.9370851177e-04
1.1397453770e-05 2.2795821689e-04 -6.1994786531e-04
2.2463649426e-05 2.7935793946e-04 -6.2205478455e-04
-3.0798174732e-04 4.7217077773e-04 -1.5290755079e-03
-2.7992151016e-04 4.7258091239e-04 -1.6071095819e-03
-3.4306956576e-04 4.3986860465e-04 -1.4409886667e-03
-3.4329350840e-04 6.6597679955e-04 -1.6983587485e-03
-3.6557756042e-04 5.1634133480e-04 -1.4366139599e-03
-4.0966672087e-04 6.0950358515e-04 -1.6922078499e-03
-2.5755001495e-04 4.5327262849e-04 -1.6004015005e-03
-1.7635218869e-04 6.9568255821e-04 -1.6110689267e-03
-2.5475857907e-04 5.1139432315e-04 -1.3532187244e-03
-1.9255693471e-04 6.3047196805e-04 -1.3134080930e-03
-1.9291335426e-04 4.8874356244e-04 -1.1196569398e-03
-1.5016230364e-04 3.7970160393e-04 -8.5599976194e-04
-1.0404401547e-04 3.9927591476e-04 -8.7943427532e-04
-1.0366823962e-04 4.0307244943e-04 -9.4833224600e-04
-1.3578981562e-04 4.1865481245e-04 -9.8088062595e-04
-8.3776489135e-05 2.1776155360e-04 -4.7845325692e-04
-3.4857928371e-05 1.7661042098e-04 -3.7738074761e-04
-1.1758463874e-04 4.7940866621e-04 -1.0401639171e-03
-2.8294988890e-05 3.3015486263e-04 -7.0323860029e-04
-1.6197936397e-05 3.2191072413e-04 -6.8747043828e-04
2.0844785591e-05 1.6842924514e-04 -3.6940765967e-04
-2.8554931116e-05 3.8695872524e-04 -7.9112452230e-04
-1.8967438451e-05 1.9254584148e-04 -3.5647937830e-04
-2.2453538593e-05 1.8250383238e-04 -3.9134489916e-04
-4.0540201972e-04 5.6494378730e-04 -1.7351621109e-03
-5.0940171181e-05 1.9714804301e-04 -3.3693619809e-04
-3.7413769869e-04 6.0436065565e-04 -1.7377025822e-03
-1.6691109159e-04 4.9329889311e-04 -1.0468116391e-03
-3.9240944692e-04 6.8760037926e-04 -1.7932190707e-03
-3.2261122304e-04 6.1477162074e-04 -1.4938845331e-03
-3.4977268168e-04 6.6854435097e-04 -1.6816140575e-03
-3.2471562707e-04 6.9368250140e-04 -1.5977930382e-03

SCALARS u_magnitude double 1
LOOKUP_TABLE default
4.1325212798e-04
2.8821318776e-04
1.9728254278e-04
2.3502454848e-04
2.0318075131e-04
6.2464163861e-04
3.6190998353e-04
3.3213196166e-04
4.5761064736e-05
0.0000000000e+00
0.0000000000e+00
0.0000000000e+00
1.9959936170e-04
1.8356701065e-04
1.6222260842e-04
4.3975592028e-04
1.5433404972e-04
1.4966896288e-04
1.8122360533e-04
2.1884909505e-04
2.8288559275e-04
1.9177382200e-04
2.1510361564e-04
1.6350196691e-04
2.5540149701e-04
3.9327119366e-04
2.4520383570e-04
3.3647469246e-04
3.4163136767e-04
3.6028143361e-04
2.8746619489e-04
3.0506064059e-04
3.7397366082e-04
4.3452459417e-04
5.4962404321e-04
5.3550008711e-04
2.9771526873e-04
2.1013761857e-04
1.0002614561e-04
1.1384603120e-04
0.0000000000e+00
0.0000000000e+00
1.3449128928e-04
1.4196171998e-04
6.6378541856e-05
4.0403585161e-05
6.1038296697e-05
0.0000000000e+00
0.0000000000e+00
0.0000000000e+00
1.5919472568e-04
4.4745405763e-04
6.2511044035e-04
1.9060667161e-04
1.3256906227e-04
5.8256387832e-04
0.0000000000e+00
7.3674565555e-05
0.0000000000e+00
0.0000000000e+00
0.0000000000e+00
0.0000000000e+00
4.9635629691e-04
4.7030769573e-04
0.0000000000e+00
0.0000000000e+00
4.5712317149e-04
3.9102822952e-04
4.0774291467e-04
4.6477472463e-04
5.1338556167e-04
6.4163086021e-04
4.7942531019e-04
1.9230945841e-04
8.9886635619e-05