# vtk DataFile Version 3.0
VEM 3D Result
ASCII
DATASET UNSTRUCTURED_GRID

POINTS 728 double
152.9312409858 190.9550573588 191.9071054942
159.5336373036 94.3351941350 96.8416499444
169.2591592749 99.1975368237 134.1191379774
165.9585883430 70.1366686904 100.8773762463
202.5000000000 0.0000000000 201.0000000000
202.5000000000 122.4874103596 62.2089900448
202.5000000000 120.8130949918 63.0321306876
172.2653546634 121.9986435557 95.4624076418
164.0911127536 122.6969563867 109.4218952219
172.4782543880 117.5489275191 97.4175488834
164.7304068218 112.7818092841 113.4894961458
159.5109630232 94.4987547390 96.9848857628
159.3315099622 104.6662861167 115.9957266282
135.2221551413 125.0029233255 104.4842066979
135.4380979492 95.3363902619 100.4247962530
136.8759095359 103.8862622548 113.1877441012
141.8387726654 102.9948381453 114.2352178848
156.4606060509 93.3864196422 95.1441886192
165.8670534101 85.1204983901 130.3143608976
45.3732953398 117.9820146131 109.5351791460
101.0891911813 99.8790349140 166.3328133400
0.0000000000 42.4277888457 177.5319997676
80.0006535320 204.0746928200 109.6123110033
109.3813373043 195.5383661136 75.5783278670
45.1925640632 121.3326177618 112.8035651516
0.0000000000 208.6540599575 137.6354906251
202.5000000000 96.9989833351 46.2119761350
146.2261167620 109.4485205042 80.9818798500
135.4289003842 95.2935325899 100.3454379568
135.3929965980 95.2361947761 100.3072189683
133.0469568550 92.0196000440 97.5496303692
134.2726208880 90.1790465312 96.2607619269
122.6904279672 128.4190191521 145.0073453317
105.1252080658 100.5351891891 158.2986800097
101.4546059286 92.2951416750 148.6929171291
101.9103065453 99.6483996427 157.8322696143
53.3215120003 98.6801400956 96.3363703250
202.5000000000 214.5000000000 201.0000000000
148.6643355637 184.9787763220 127.4115990002
202.5000000000 214.5000000000 181.9092523763
192.2561079101 214.5000000000 201.0000000000
116.9319138519 169.8648534900 87.3603263837
117.6211530366 172.8246337131 77.0371081848
123.9837192394 162.7376892014 91.8173317990
202.5000000000 192.7721061746 67.9551416221
202.5000000000 214.5000000000 40.7548411673
133.0293426039 63.2734287387 107.5172496154
143.2531346813 70.0122251514 102.0880989666
152.0083912903 66.3728788553 97.1811642566
147.6523859234 74.6630338146 90.5762892576
165.7412766276 24.2243900583 125.4482642689
155.1469346234 50.5207629295 100.5691524085
155.6752725153 58.8194619430 98.6316325164
169.7552698974 74.6357122336 121.5869557633
117.8493829131 0.8414315171 168.8599992862
163.6499105906 64.9845106470 101.0193935366
169.8958371035 131.3218184043 89.9222661880
168.5727428024 163.0483680403 152.5528947882
160.3389331390 133.8790614811 104.4132453689
152.8130442771 170.0534262222 139.0910722573
150.8771965066 173.8585828688 125.8667103619
146.5238907154 160.1368053393 107.8606604727
145.9270761560 153.0766560930 108.1195375584
145.8266296811 154.3903995246 106.8454767664
202.5000000000 130.3147203868 55.3977625440
202.5000000000 163.6666765427 119.8472886791
202.5000000000 176.5484487437 69.2300143108
97.8952426229 127.7937069452 98.5972422956
202.5000000000 0.0000000000 100.0749128684
164.7430535548 25.8126009037 119.7623840136
152.6961647309 16.9899513346 123.9835096909
164.1733004218 32.2264394412 109.9843869839
161.8929270624 31.8170258491 108.9420979869
151.7553983112 22.3771076279 97.0992878219
158.0430271762 30.7539240621 94.0621861304
140.2985508116 0.0000000000 190.9035592138
144.4956442846 0.0000000000 155.4421732825
117.8062644724 0.0000000000 169.3817225499
202.5000000000 68.5519687311 59.6353717822
202.5000000000 98.8089229763 103.3878433241
115.9821083508 170.2232672951 75.0672735913
112.9447297565 161.5128988453 89.3652496636
113.1284396580 162.7985140484 88.9436713557
144.9666757550 75.7023643885 85.9520559746
145.9355745433 98.9693509679 63.9644779649
144.6191530470 98.2759706837 62.5455516207
144.8923535974 78.0669463139 88.9725960151
139.1008584979 84.4771307088 89.6873477508
154.5941310602 92.7916346062 93.9832554912
150.2076657609 94.1131788322 90.1577125800
154.4780876851 92.7182203804 94.0501410003
148.7678722811 91.9120852503 92.9887030398
202.5000000000 74.9124341438 6.8731544744
202.5000000000 94.9109712929 31.5661581323
27.3586634358 90.4277493326 95.1200471532
35.5303178801 106.0517511162 79.1812397850
18.7968040785 167.2456836050 74.4763915847
7.7608026620 138.7806488297 66.0659157209
33.7126751238 121.5928433699 67.8190152785
19.8945569791 136.8670625287 62.0859212343
136.3378374063 191.5932638248 103.3071832706
137.3989862378 204.5133183580 113.3570744525
116.6240462734 187.4046114779 88.6999935168
107.8436529874 202.3266610415 94.4444930927
110.7703065174 196.2181001798 76.8878984553
117.2714999128 185.6880693361 79.7825868420
111.1416219695 196.7895413141 75.5870780330
133.3349790087 214.5000000000 118.2634904576
190.4835548237 214.5000000000 51.8482463834
202.5000000000 214.5000000000 35.9203098830
107.7454874168 214.5000000000 103.2702240302
117.0575998471 214.5000000000 60.7845307873
202.5000000000 175.9354587621 1.7244033777
179.0501318164 46.7927764872 152.2917229189
178.3850868916 45.2875697598 148.6206843604
169.8645638899 74.4742362460 121.4071479175
169.0884746514 49.8673656058 107.7797786381
166.3113015498 66.7064620199 101.9053828533
166.3102325479 67.1064375156 102.0640189184
169.3187694358 73.5231097423 118.5105692813
166.5822665848 68.2597992275 102.2203307663
166.5662451531 68.2347664456 102.2280118457
166.5873691536 68.2897064033 102.3225121209
202.5000000000 47.5203911439 129.7400169667
202.5000000000 74.4934313866 91.4325809519
202.5000000000 66.2947268593 62.1330499209
166.7467077966 131.7466044003 87.3872450592
168.4103808809 132.7238043002 88.2416673223
171.2405062873 154.7982280354 69.5566273307
151.4269595542 137.9392163467 101.5453569071
152.1576342088 141.3440830694 102.2186185077
154.1485518642 138.6405781477 101.6421749100
149.9514589248 149.7571554877 99.1231243492
139.4620959888 152.2121918000 86.5397794944
150.3988329609 161.8640789176 32.5266694312
202.5000000000 130.5819737082 31.9047235490
202.5000000000 134.5695645648 45.1895840825
202.5000000000 154.2658090764 31.6124467744
202.5000000000 165.2966455255 9.1205317214
73.4539049132 160.1573033040 110.6946922650
129.5128607742 163.4361784285 163.2319365910
128.2347476540 165.3848220409 165.2022312321
128.1748302508 160.4904571041 161.0914653071
127.7297249168 142.1868703155 112.4584362560
83.9042566090 175.6801968964 105.6028426671
104.0648283749 153.6257802372 93.9136330346
119.6768763812 128.9392238871 111.9715102342
98.9780533180 127.9164799276 99.4979539124
102.9015831205 154.6007211270 93.9235745268
86.6164837583 144.9471191038 93.5882594701
97.4034542171 128.7893817677 98.2260507704
94.0755970682 136.6808817587 93.4834895076
54.9879874238 214.5000000000 173.3410107964
63.4187091988 117.0038111066 123.2454308491
0.0000000000 214.5000000000 201.0000000000
79.3002131735 100.4759733717 133.6396576732
20.4337636801 120.5284366444 127.8701593964
0.0000000000 72.4091026016 201.0000000000
53.0787700897 214.5000000000 185.8403619118
0.0000000000 57.1384758521 181.7894767253
0.0000000000 214.5000000000 188.7823903181
0.0000000000 115.0391205753 135.7639671599
0.0000000000 137.4632126407 139.7757441656
144.9069244158 8.4635606770 120.1255556996
146.0060255603 9.1005669234 123.0005802166
202.5000000000 12.5719220355 48.5531104060
202.5000000000 14.4971573616 63.1694813180
180.9631085359 47.3100298495 50.7261879085
152.1946741804 43.3138406098 83.6576829107
117.7078578017 0.0000000000 169.2025296449
202.5000000000 62.6978674901 60.7170056008
145.0887676937 0.0000000000 201.0000000000
143.3900880178 4.2506421390 191.0177082412
175.5842164817 46.0623455809 177.0671936939
165.7359095666 76.8121813470 140.4625529443
121.4342485328 18.1762987525 160.6918555080
133.0386862734 53.1856701649 136.9468740488
182.6162189940 113.3472315243 187.1312576782
191.5674188332 108.4103686680 200.9095904187
175.2258349084 102.3417751944 158.2588863475
131.8388553555 110.8792946558 145.8670823934
122.2655151419 98.5880971624 152.4057455358
164.6458101376 87.4901153307 134.1061452984
118.4757774028 22.3756511497 156.3347948616
164.9402603826 90.6791819162 133.8989103102
163.9431259450 94.3438860633 133.0895558349
165.8169068481 94.6328929279 135.0374176584
152.1189006995 95.8166807552 127.8783112763
156.4788066000 86.1339075052 130.7547000029
122.6596747402 59.5993311431 128.2597191741
126.0267719556 101.1793216208 120.9165370124
115.4909488576 93.5552223406 120.0140318127
123.1181039302 102.6366740855 121.9866291066
109.9314273343 85.0262616015 137.8622721133
151.4393592502 8.8872960323 201.0000000000
133.9066320050 122.1687846062 93.7700102019
130.9882004226 110.8739625533 84.4846447097
135.2716224712 108.1460251203 76.4011791656
133.3535958282 113.1287189369 87.7503517478
137.8328053873 112.8545156749 84.5962984460
143.7853601478 130.2082371377 92.9194237436
145.7886278144 129.3385203082 90.9811360139
99.4610425896 93.0836870578 87.3754690425
143.0795296980 95.3145541241 49.4891743664
79.3165606971 104.9438523519 53.7929406292
98.8882359557 92.3265645474 85.6891223609
100.9903464937 99.3029549221 74.4529043486
0.0000000000 87.4545313559 109.8071708560
0.0000000000 214.5000000000 0.0000000000
0.0000000000 190.0069425781 95.7689734365
0.0000000000 138.3227389999 69.9299910278
0.0000000000 193.7829422735 95.8947879256
37.5614469425 148.4379261664 62.0092068903
37.2216979751 147.4692515031 61.7134988954
41.6244998957 128.1423946703 67.2148132237
58.5889269662 143.2550731943 83.7214371368
46.0497749826 124.3205895992 71.9271944602
51.1414728958 121.0633520567 74.0329894557
72.5504280648 113.0211319151 66.4430600094
77.6159115636 126.9043938295 90.5660506627
83.9860453823 187.7625754141 64.1682782348
93.9980507615 179.9217601479 59.1661874069
53.0561083075 214.5000000000 146.6699009538
71.7026475250 214.5000000000 121.2735565021
57.2776777406 214.5000000000 142.6840478009
0.0000000000 214.5000000000 141.7106454827
[...]
POINT_DATA 728
VECTORS displacement double
9.1623928608e-05 9.9647621286e-05 -2.6644484594e-04
2.5461827222e-05 1.1008347555e-05 -7.6856217290e-05
4.2609477861e-05 2.4175225813e-05 -1.1419800349e-04
3.1179121662e-05 1.1038970128e-05 -7.8534481863e-05
1.1222078323e-04 5.7328909538e-05 -1.6273472293e-04
3.2740980884e-05 1.2728526732e-06 -5.8371761637e-05
4.8932790511e-05 6.5567265165e-06 -7.3850838205e-05
3.3521123119e-05 1.6572946996e-05 -8.0609455365e-05
2.5150971410e-05 1.9316969673e-05 -7.1138419661e-05
3.0536130006e-05 1.5716121450e-05 -9.0691461255e-05
2.1144700541e-05 2.1959165715e-05 -8.7498389091e-05
2.7042502270e-05 1.1882362771e-05 -8.3691706509e-05
2.6513127700e-05 2.2803137126e-05 -1.0171552775e-04
1.4290062945e-05 1.0838454417e-05 -1.0489143807e-04
3.0721072375e-05 1.3083632967e-05 -7.5853730732e-05
2.5557848802e-05 1.9233816588e-05 -9.3556130453e-05
2.5925731251e-05 2.2490220142e-05 -8.9382237634e-05
2.9807549275e-05 1.1551164489e-05 -7.0474753232e-05
4.5929944293e-05 2.0998679651e-05 -1.1345287725e-04
1.7314281616e-05 2.4347301541e-05 -3.1083780733e-05
6.7656414172e-05 6.0929215183e-05 -6.0856364356e-05
6.8762842339e-05 6.4779847197e-05 2.8031864086e-05
3.4511383343e-06 4.4580880486e-05 -1.4092234232e-04
-3.7678243605e-06 3.7716258957e-05 -4.9071073949e-05
1.5267783596e-05 2.1079793451e-05 -3.5422537449e-05
-1.2881978455e-05 2.4889203635e-05 -4.1380695974e-05
3.2989662410e-05 -6.9020504721e-07 -5.1414342396e-05
2.4310100846e-05 6.7040209924e-06 -8.3028455754e-05
3.2035701574e-05 1.5800877562e-05 -8.0669270439e-05
2.9911311355e-05 1.5341018689e-05 -7.8857138645e-05
2.2278369101e-05 1.3044302183e-05 -6.1357829784e-05
2.1616159203e-05 1.4053845718e-05 -6.1616120668e-05
4.8777327733e-05 5.8784143826e-05 -1.0327249122e-04
6.3065319212e-05 6.1950258546e-05 -6.2586363612e-05
5.5773494014e-05 5.6833630414e-05 -4.3964887019e-05
6.1891811349e-05 5.3786428907e-05 -5.5016973986e-05
1.1134466598e-05 1.5238443347e-05 -2.6853228755e-05
1.5852434122e-04 1.1725736244e-04 -4.8690903777e-04
4.1243974421e-05 4.6188211425e-05 -1.4455593911e-04
1.1423057204e-04 1.1589187366e-04 -3.0523931175e-04
1.2512722499e-04 1.3411585746e-04 -3.8641999977e-04
8.3431904255e-06 1.6380756365e-05 -9.6878846803e-05
1.9923817518e-06 2.5406989300e-05 -4.4037680065e-05
9.4724718957e-06 1.8286786586e-05 -9.5992244589e-05
3.1883826972e-05 2.1446021437e-05 -7.0360573581e-05
1.6650737139e-05 3.9695677263e-05 -5.4164958951e-05
2.9685774768e-05 1.3455642831e-05 -5.9545946090e-05
2.7422289458e-05 8.6146238276e-06 -7.0210913781e-05
2.7209072914e-05 2.8402428780e-06 -6.7066123218e-05
2.6016887972e-05 9.9576296653e-06 -5.4050719517e-05
4.8967260826e-05 1.8717865670e-05 -6.3055946248e-05
2.9884117013e-05 8.3981093347e-06 -5.0301841790e-05
2.8575924597e-05 8.1512283628e-06 -5.1071590539e-05
4.3731604104e-05 1.8013219584e-05 -1.0183805814e-04
6.1381890377e-05 4.7814821621e-05 -5.1659668320e-05
3.3560612818e-05 1.0523930873e-05 -6.1447744167e-05
2.9600331871e-05 2.2064451487e-05 -9.8646877684e-05
6.3540102448e-05 6.7103065795e-05 -1.9219699416e-04
2.1052798282e-05 2.0725679871e-05 -9.2873204756e-05
4.3719866445e-05 5.3476498832e-05 -1.6147979828e-04
3.6420980432e-05 4.5125878448e-05 -1.4851260907e-04
3.2397142292e-05 2.9890395765e-05 -1.2147116813e-04
1.9982624546e-05 2.5042628705e-05 -1.2920336672e-04
2.7747929817e-05 2.6863938642e-05 -1.2619731976e-04
2.4930155246e-05 2.9751919293e-06 -6.8212766452e-05
6.6276993647e-05 4.9655286773e-05 -1.8233305170e-04
3.3834284166e-05 1.4931536911e-05 -8.6042260507e-05
2.6082626910e-05 1.6428461392e-05 -6.1835710397e-05
4.5927772924e-05 4.6589785425e-06 -5.6640180376e-05
4.5737780195e-05 1.5179711394e-05 -5.5446409302e-05
4.3056839535e-05 1.4322960029e-05 -4.6868887248e-05
4.0912883196e-05 1.3728306523e-05 -5.2550944492e-05
3.7936624029e-05 9.2647678334e-06 -4.9244836044e-05
3.0822292493e-05 5.7458694840e-06 -3.4930530002e-05
2.9765913833e-05 7.4165402945e-06 -4.0851061120e-05
7.9718787148e-05 5.5244751953e-05 -8.3268106534e-05
5.6808203936e-05 2.8387666078e-05 -5.5984323778e-05
6.5878201305e-05 5.6268487446e-05 -4.1944605033e-05
3.9191906825e-05 4.0787650258e-06 -6.2399330169e-05
4.3728797159e-05 4.0706210971e-06 -1.1564611331e-04
1.7751807993e-06 2.4750801247e-05 -5.2972472240e-05
5.1546663550e-06 1.7892867329e-05 -8.0789948426e-05
9.3171749194e-06 1.4830724731e-05 -9.1525795263e-05
2.3313596228e-05 5.3394098584e-06 -5.4280658534e-05
1.8922076960e-05 5.2647678194e-06 -4.8293345157e-05
1.2374457949e-05 7.0843314990e-06 -4.3999539147e-05
2.2676992071e-05 1.0007264411e-05 -5.1607342801e-05
1.8739213384e-05 1.2413056641e-05 -5.4487988858e-05
2.8505373539e-05 1.0698209588e-05 -7.1889966446e-05
2.4928851014e-05 1.3218026615e-05 -7.8252702970e-05
3.0108921400e-05 1.0169607375e-05 -6.6755400621e-05
2.7320964373e-05 1.1215516886e-05 -7.7041568236e-05
0.0000000000e+00 0.0000000000e+00 0.0000000000e+00
2.9972589157e-05 -2.7797347953e-06 -3.5527864866e-05
9.3665658588e-06 1.1884488615e-05 -2.5298019075e-05
3.8298132789e-06 2.2645434075e-06 -3.9257480134e-05
-1.8071852498e-05 1.2722521532e-05 -1.7304116719e-05
-1.5268577231e-05 6.1465507900e-06 -1.5715339454e-05
-4.1449382042e-06 2.6987193447e-06 -3.3894615124e-05
-9.2234182260e-06 4.1312273534e-06 -1.5006036490e-05
2.3785550797e-05 4.2312215366e-05 -8.5365313147e-05
2.6868759327e-05 5.0051963902e-05 -1.1264444535e-04
7.4197873572e-06 3.4626712384e-05 -7.5754336464e-05
5.5723390851e-06 4.0573015966e-05 -9.8648399341e-05
2.1434855199e-06 3.8239120487e-05 -6.7918238946e-05
5.9418179484e-06 3.8094075321e-05 -5.4735454859e-05
1.3618328378e-06 3.7860613783e-05 -5.7209839930e-05
2.3084421184e-05 6.7279073023e-05 -1.2977060245e-04
1.5299380655e-05 4.2057873721e-05 -5.9815540466e-05
2.3550343163e-05 3.4592176659e-05 -3.7411755637e-05
5.7064963478e-06 4.9637712312e-05 -9.8929839216e-05
-1.7139704891e-06 4.7887240754e-05 -6.3927301629e-05
0.0000000000e+00 0.0000000000e+00 0.0000000000e+00
7.1251374314e-05 4.2817728960e-05 -1.0691706089e-04
6.8111555906e-05 3.2455385581e-05 -1.0026431637e-04
4.5208964719e-05 2.0136427044e-05 -9.8381756345e-05
4.1546828849e-05 1.4423092941e-05 -6.3348862525e-05
3.5967900389e-05 1.0357964262e-05 -6.8437049344e-05
3.4536399617e-05 9.6752409450e-06 -6.9381440031e-05
4.1650463433e-05 2.0147217834e-05 -8.6962906337e-05
3.4424237395e-05 1.0802309118e-05 -7.7074350456e-05
3.3993097307e-05 8.0861170948e-06 -7.6403189709e-05
3.3294241307e-05 8.1474456091e-06 -7.6942833021e-05
6.3168389760e-05 3.2743396284e-05 -9.8729456884e-05
3.5065246726e-05 7.3794915059e-06 -9.0882575586e-05
3.4233923743e-05 2.0947549687e-06 -6.0298819791e-05
2.9387391220e-05 1.1484828434e-05 -8.7841730895e-05
3.4869141924e-05 2.3117058405e-05 -9.7492850660e-05
3.0397218997e-05 2.3557604750e-05 -7.7702452930e-05
1.8522313175e-05 1.2151806302e-05 -1.1395476814e-04
2.3237805837e-05 1.7241966709e-05 -1.1277263718e-04
2.0988813611e-05 1.9954059851e-05 -1.0668395031e-04
2.9746887380e-05 2.3232203458e-05 -1.0825290907e-04
1.6658092555e-05 1.7202360126e-05 -7.8000760439e-05
2.6651642522e-06 1.3926810461e-05 1.1182596179e-06
3.7107925726e-05 2.2019055238e-06 -3.2499056195e-05
4.9110040034e-05 7.8982466696e-06 -5.6218132979e-05
3.5827093804e-05 1.3255894315e-05 -3.0909086980e-05
0.0000000000e+00 0.0000000000e+00 0.0000000000e+00
2.9835430544e-05 2.7319500230e-05 -9.7841643888e-05
5.8473764552e-05 7.2109369489e-05 -1.3839408876e-04
6.3054225140e-05 7.3241473178e-05 -1.1549243952e-04
5.7994239219e-05 7.0349763619e-05 -1.3294811968e-04
2.8742824930e-05 2.5274874973e-05 -1.0621610042e-04
1.5920203482e-05 2.1971576704e-05 -1.1246225015e-04
1.5940971638e-05 1.5203305994e-05 -7.7290378479e-05
2.9868114905e-05 1.8616833638e-05 -9.6916477137e-05
3.0390571530e-05 1.8811031656e-05 -6.2786759014e-05
1.7784745330e-05 1.1758531263e-05 -7.7195266708e-05
1.3704420028e-05 6.4905480881e-06 -6.8598291096e-05
2.8681944508e-05 1.8037593041e-05 -6.2912428107e-05
1.8903324314e-05 9.6728594773e-06 -6.6121311359e-05
5.0249113029e-05 9.4704712781e-05 -1.7867511566e-04
4.9177008065e-05 2.4133410654e-05 -7.3444175621e-05
2.9493057878e-05 1.0451680177e-04 -2.0096680205e-04
5.2076664482e-05 4.7061853923e-05 -3.4969110350e-05
4.4375161634e-05 1.7559441096e-05 -6.9113155662e-05
7.1198337904e-05 6.4657883207e-05 3.4385166353e-05
5.0052389291e-05 9.1574008416e-05 -1.9636931481e-04
7.3528462489e-05 5.7207030696e-05 3.9308556852e-05
5.1430278295e-05 7.7931859207e-05 -1.7370712513e-04
4.1578541211e-05 2.1007537291e-05 -2.6037574935e-05
4.4746500443e-05 1.8585193627e-05 -6.2630362583e-05
3.9050017341e-05 8.7185094647e-06 -4.2071336893e-05
4.1093188344e-05 1.1197303364e-05 -4.3572654016e-05
1.9851679262e-05 -5.3529110322e-06 -3.1453557160e-05
2.6360287022e-05 -5.6696973578e-06 -4.2948260675e-05
1.8161644133e-05 9.3618634526e-07 -3.6565911711e-05
2.4539976465e-05 7.3518205073e-06 -3.3908954854e-05
5.8613066638e-05 4.6781543037e-05 -2.8098626123e-05
2.8572366169e-05 7.1781269860e-07 -6.4215049674e-05
8.8987295950e-05 5.1893666446e-05 -9.7180824724e-05
7.8969507774e-05 5.4681656874e-05 -1.2665416437e-04
8.6014305890e-05 6.5494932390e-05 -1.2163922799e-04
5.5702195742e-05 4.7672600506e-05 -1.0171787594e-04
5.1521945433e-05 4.5296432177e-05 -5.1084383522e-05
4.0437746207e-05 4.0058608782e-05 -6.5232076270e-05
8.4730709003e-05 8.0724523420e-05 -1.7925905704e-04
1.0637255165e-04 8.9649806549e-05 -2.4087333811e-04
6.8619595787e-05 5.3124269320e-05 -1.2897623362e-04
4.6603750259e-05 5.3663883514e-05 -9.9536545621e-05
5.1167786854e-05 5.6007653613e-05 -7.8183897919e-05
5.0326677603e-05 3.6091359698e-05 -9.9913449113e-05
5.5064860655e-05 4.4600634727e-05 -4.8460947565e-05
5.0027358898e-05 3.3259394928e-05 -1.0979882899e-04
4.9758170222e-05 3.7876250554e-05 -1.1480438324e-04
5.3170488358e-05 3.5972859646e-05 -1.1270246849e-04
4.5424140491e-05 3.5885420645e-05 -9.8028335161e-05
4.5683503953e-05 3.1380405302e-05 -9.5886111109e-05
3.6737744919e-05 2.8076041555e-05 -5.3268963731e-05
3.5592554772e-05 2.9297776928e-05 -7.7871328473e-05
3.2605666616e-05 2.6832400676e-05 -5.8017887669e-05
4.0607786835e-05 3.2995821162e-05 -7.3697701973e-05
4.8675308808e-05 4.5119332184e-05 -4.9582503481e-05
9.0851857237e-05 4.9589847833e-05 -8.4594174700e-05
2.5682894214e-05 1.2134398171e-05 -7.5167015373e-05
1.4930445428e-05 1.2157675210e-05 -5.5046434503e-05
1.4592716890e-05 8.8132557118e-06 -5.6332319710e-05
2.3857792760e-05 1.1483062068e-05 -7.7863136756e-05
1.9193008080e-05 7.2782870236e-06 -8.0179233277e-05
2.6069271992e-05 1.3221732258e-05 -8.7896731085e-05
2.0473683920e-05 1.2097406600e-05 -8.2622031788e-05
1.2688161433e-05 1.1712488208e-05 -4.0035439373e-05
1.0326524869e-05 4.9047158133e-06 -4.0733196726e-05
-2.0059621077e-06 -4.1876909363e-07 -3.0314535311e-05
1.5334454318e-05 1.1582703275e-05 -4.6648083056e-05
1.0807410123e-05 5.6403146923e-06 -4.4500712202e-05
8.0874745427e-06 8.9232150064e-06 4.9545123139e-06
0.0000000000e+00 0.0000000000e+00 0.0000000000e+00
-2.3907807825e-05 1.6067807224e-05 -2.3987528537e-05
-1.5933969606e-05 4.4564493167e-06 -1.7103166187e-05
-2.7046341269e-05 1.8502664768e-05 -2.7783020671e-05
-8.8774662520e-06 1.4681461327e-05 -1.3009848570e-05
-9.9945657792e-06 8.7028735665e-06 -1.1376274114e-05
-4.2516351282e-06 7.6984133739e-06 -2.0413116940e-05
8.6096386392e-06 2.0217838961e-05 -4.4302468062e-05
-1.9985853748e-06 4.0549186525e-06 -2.3027685398e-05
1.7638939433e-06 5.5301554286e-06 -2.4687568721e-05
-6.9999433877e-07 6.1567765419e-06 -3.1344439873e-05
1.3085080443e-05 1.2310278356e-05 -4.5575600361e-05
-1.0738435174e-05 3.2237189586e-05 -4.2873321261e-05
-4.9269697208e-06 2.3326562023e-05 -4.0461950731e-05
3.5846233010e-05 6.5543253305e-05 -1.5832806114e-04
1.7448723714e-05 3.7181846399e-05 -1.0610826360e-04
3.6756412682e-05 6.1966705340e-05 -1.4255638125e-04
-2.9209642305e-06 3.5084088471e-05 -3.1358284928e-06
-3.2174938041e-05 2.6977042909e-05 -3.6146793693e-05
0.0000000000e+00 0.0000000000e+00 0.0000000000e+00
5.3373939916e-05 4.6049287473e-05 -9.1132100390e-05
5.2836711498e-05 4.3138801355e-05 -8.5888784031e-05
5.3454280327e-05 6.6604578524e-05 -9.8242374937e-05
3.0755677293e-05 3.6700351418e-05 -8.4646936559e-05
3.3753902244e-05 3.1375894354e-05 -8.6591036390e-05
3.1784274782e-05 3.5059899620e-05 -6.6843585640e-05
5.4840419199e-05 6.5620765038e-05 -9.4206293355e-05
6.2652051008e-05 4.1732012930e-05 -4.6820616712e-05
5.1901801273e-05 4.2159565316e-05 -4.9718198055e-05
4.2652124371e-05 4.8970259981e-05 -3.4778870718e-05
4.7600871093e-05 4.5234646097e-05 -2.9505532443e-05
4.3652408301e-05 3.0864748035e-05 -5.0015358425e-05
3.7981705020e-05 2.9815608377e-05 -6.4467052164e-05
5.0160574019e-05 3.7485937539e-05 -4.5490604641e-05
4.0991184020e-05 3.6587773259e-05 -4.5771221115e-05
3.2265010030e-05 3.3426727618e-05 -4.6024802274e-05
3.1066537510e-05 1.4892824182e-05 -3.8848869947e-05
2.8154998841e-05 1.5685360250e-05 -3.7705391587e-05
1.5774756434e-05 7.0782782325e-06 -2.7710700971e-05
2.1606119792e-05 4.0858211407e-06 -3.8633437088e-05
2.2586935441e-05 2.6671157123e-06 -3.1290430010e-05
3.1701366666e-05 9.6629720641e-06 -5.4356947015e-05
2.8739892353e-05 9.8084288291e-06 -5.7654387564e-05
2.9180835384e-05 6.5569818302e-06 -6.1171245176e-05
3.0091261236e-05 8.8801513216e-06 -5.8018635266e-05
3.0489266405e-05 6.2628453046e-06 -6.1077980359e-05
4.4314365937e-05 3.4351566834e-05 -4.1267123268e-05
4.8654008331e-05 1.9125965599e-05 -3.9211462034e-05
2.9092842030e-05 4.7871440516e-07 -6.3330091217e-05
2.6591569163e-05 -2.0242920888e-06 -5.2138102917e-05
3.3642082280e-05 -3.6871220747e-07 -5.6763837471e-05
4.1580816692e-05 3.3786591500e-06 -6.4324793055e-05
6.5655376226e-05 2.4957785979e-05 -1.0047861313e-04
1.6520995117e-05 1.6241168463e-06 -2.1884990626e-05
1.5682955681e-05 -1.9973334897e-06 -3.3202920068e-05
1.8842858474e-05 -4.2343137951e-06 -3.9196357160e-05
1.6217334164e-05 -5.1828421887e-06 -2.6230837878e-05
1.2513484543e-04 1.1360154670e-04 -3.1299447927e-04
1.2084938129e-04 1.0171785029e-04 -2.9514153347e-04
1.3911193801e-04 1.1005559797e-04 -3.5540900955e-04
1.4161058226e-04 1.1605358371e-04 -3.6414316509e-04
9.7587774089e-05 1.2026713044e-04 -3.2495860180e-04
1.0451477017e-04 1.1126025095e-04 -2.8866673398e-04
7.5349207164e-05 1.1638783767e-04 -2.3750812327e-04
1.1117786999e-04 7.3701565777e-05 -1.1482214854e-04
1.0611740509e-04 6.3343077626e-05 -4.2884818973e-05
1.2694156426e-04 1.1126690343e-04 -2.3578385130e-04
1.2277000561e-04 1.1666714147e-04 -2.1043631895e-04
1.2111303089e-04 1.0246598758e-04 -2.3734471980e-04
6.6149444124e-05 3.7977661276e-05 -5.3027367761e-05
8.4901179960e-05 5.1379262821e-05 -3.4724207783e-05
8.5654585836e-05 4.7854145799e-05 -5.5694090301e-05
7.2527796663e-05 4.9827257306e-05 1.2641912227e-05
1.1257727605e-04 8.0926595140e-05 -1.5014213817e-04
1.0919655995e-04 7.8447289650e-05 -1.2079530097e-04
1.2405643367e-04 9.3136561702e-05 -2.0131908391e-04
1.2257728800e-04 9.8523928012e-05 -1.7553416972e-04
1.1516449639e-04 9.5052681876e-05 -2.5778405743e-04
1.0505934403e-05 1.1769886905e-05 -6.3802804729e-05
9.9909036408e-06 6.8574009723e-06 -4.8146507945e-05
2.5559628216e-06 9.5360690232e-06 -6.2264389367e-05
7.1725581720e-06 1.0517051546e-05 -7.8685661377e-05
9.1932352306e-06 1.2627020349e-05 -4.4403357810e-05
9.8167240436e-06 1.0159175446e-05 -7.2337731986e-05
8.1200440898e-06 1.0669745686e-05 -7.4120663351e-05
1.2474939019e-05 1.0869785113e-05 -7.6079704318e-05
1.5984935509e-05 9.7245171040e-06 -4.7352267198e-05
1.5428875611e-05 1.1253844935e-05 -4.3652612042e-05
2.0585401264e-05 1.0942438896e-05 -5.6241595792e-05
2.1491361653e-05 1.2287101205e-05 -5.6081148959e-05
1.9493028730e-05 1.4613305434e-05 -5.1858015409e-05
1.1834175154e-05 4.6361275949e-06 -4.3601393525e-05
2.0648174513e-05 1.1372669907e-05 -5.7902153006e-05
1.9871609767e-05 1.5104781391e-05 -5.4400514447e-05
1.9242906036e-05 1.0969807343e-05 -5.5185250173e-05
1.9246285633e-05 1.1093216717e-05 -5.1664663102e-05
1.7327424417e-05 5.8993143342e-06 -4.3680944029e-05
2.9367943441e-06 1.6841866830e-06 -2.4819168795e-05
1.2096789215e-05 7.2612743283e-06 -5.3577630040e-05
1.1463540042e-05 6.8169649757e-06 -5.1335767301e-05
6.1383573517e-06 7.4633942148e-06 -4.7174512723e-05
1.3967832018e-05 8.6180982974e-06 -4.7416147933e-05
1.5113044560e-05 7.7911479723e-06 -5.9701126769e-05
1.0722097257e-05 8.2542615684e-06 -5.6166004082e-05
1.1785954846e-05 9.9567566129e-06 -5.4508608474e-05
8.1759436923e-06 8.6382106049e-06 -6.1453389178e-05
7.9002738697e-06 1.1479161242e-05 -5.0296564064e-05
5.3603031464e-06 1.0566979395e-05 5.8958428139e-06
1.1883728276e-05 1.0841679676e-05 -4.1431429340e-05
3.0807387163e-05 1.2190362194e-05 -3.9935116197e-05
5.2829328509e-05 4.9448361969e-05 3.5287782079e-06
5.5807846168e-05 5.9842451927e-05 2.9782087440e-05
5.1514143142e-05 4.7792709432e-05 -2.0326332177e-05
5.0305855060e-05 3.9363717641e-05 -2.0377639560e-05
0.0000000000e+00 0.0000000000e+00 0.0000000000e+00
0.0000000000e+00 0.0000000000e+00 0.0000000000e+00
0.0000000000e+00 0.0000000000e+00 0.0000000000e+00
0.0000000000e+00 0.0000000000e+00 0.0000000000e+00
0.0000000000e+00 0.0000000000e+00 0.0000000000e+00
-1.5250568867e-05 2.9195203583e-05 -3.0003959562e-05
-2.1966251357e-05 1.6371720654e-05 -1.9801991875e-05
-1.9837553909e-05 1.1480329016e-05 -1.8847611041e-05
-1.6771961151e-05 1.7553261379e-05 -1.3835593019e-05
-2.0603208642e-05 2.0650775229e-05 -3.0654480434e-05
-1.1822110062e-05 7.4640142466e-06 -1.1928568306e-05
-9.9482160091e-06 4.1478321159e-07 -1.5953095061e-06
-1.3663606877e-05 3.5848709845e-05 -2.0581642269e-05
-1.1598991001e-05 2.6862746759e-05 -4.8397572696e-05
-7.9033919961e-06 2.5839234144e-05 -2.0119350993e-05
-5.0398603408e-06 1.8189773180e-05 -4.7562146587e-05
-5.3170979305e-06 1.6875950672e-05 -4.7718699455e-05
0.0000000000e+00 0.0000000000e+00 0.0000000000e+00
0.0000000000e+00 0.0000000000e+00 0.0000000000e+00
0.0000000000e+00 0.0000000000e+00 0.0000000000e+00
2.5953189521e-05 2.5054715730e-05 -4.3635285624e-05
4.5640789044e-05 2.5057627746e-05 -6.5495858594e-05
4.0851225685e-05 2.9690867556e-05 -5.2713670065e-05
4.4999320206e-05 2.9735984152e-05 -6.9715034900e-05
2.4039649488e-05 2.2916809554e-05 -5.7984203426e-05
2.2009588164e-05 1.9198168799e-05 -4.7877629988e-05
2.3134532181e-05 2.1046589147e-05 -4.9544187784e-05
1.4908499322e-05 2.0529352533e-05 -4.2252194669e-05
2.4317399024e-05 1.8078703047e-05 -8.2453252193e-05
2.2357072641e-05 1.7952855412e-05 -5.5090406706e-05
2.6509106063e-05 1.3008650720e-05 -4.9177448539e-05
9.4020034007e-06 2.3741799260e-05 -6.2798910507e-05
2.2718931460e-05 2.5234467065e-05 -6.7761244389e-05
1.7615092545e-05 1.4055547076e-05 -5.1162430488e-05
1.5640334158e-05 1.3231251366e-05 -4.9136212291e-05
1.8541361436e-05 1.3583290086e-05 -4.9498715857e-05
1.8728755639e-05 1.1554106068e-05 -5.0688630017e-05
1.9760028108e-05 1.2497906913e-05 -5.6916445654e-05
2.6639746758e-05 1.6816396545e-05 -6.3473885094e-05
2.8327667817e-05 2.3028644428e-05 -8.9951534588e-05
1.8647971114e-05 1.1436220116e-05 -6.6938321846e-05
1.6470079437e-05 1.3032401140e-05 -6.4335372264e-05
2.0215418098e-05 1.0101883194e-05 -7.7699679300e-05
1.6243917824e-05 1.2943737170e-05 -6.6211523606e-05
1.4000030159e-05 -9.5947674074e-06 -2.5566545277e-05
3.2348798935e-05 -5.0857334852e-06 -4.7209318163e-05
3.8203319753e-05 6.9762572508e-06 -4.0288009403e-05
4.6754621372e-05 1.4361379018e-05 -4.5089832096e-05
0.0000000000e+00 0.0000000000e+00 0.0000000000e+00
2.6197381036e-05 4.6816721854e-06 -3.0107472624e-05
0.0000000000e+00 0.0000000000e+00 0.0000000000e+00
0.0000000000e+00 0.0000000000e+00 0.0000000000e+00
0.0000000000e+00 0.0000000000e+00 0.0000000000e+00
2.7249685715e-05 2.2446933760e-06 -3.2210156299e-05
0.0000000000e+00 0.0000000000e+00 0.0000000000e+00
2.8003374421e-05 5.4362186111e-06 -1.6049656473e-05
6.9002630171e-05 1.1806274025e-04 -1.9363921193e-04
1.0875255513e-04 1.2342812168e-04 -1.5557230114e-04
7.1032490845e-05 7.8308976155e-05 -4.1383560257e-05
1.0266511371e-04 7.6311780994e-05 -4.5544472751e-05
1.1586186601e-05 1.3834873819e-05 -2.7989614928e-05